<?xml version="1.0"?>
<VTKFile type="UnstructuredGrid"  version="0.1"  >
<UnstructuredGrid>
<Piece  NumberOfPoints="9537" NumberOfCells="49152">
<Points>
<DataArray  type="Float64"  NumberOfComponents="3"  format="ascii">0 0 0  0.0625 0 0  0.125 0 0  0.1875 0 0  0.25 0 0  0.3125 0 0  0.375 0 0  0.4375 0 0  0.5 0 0  0.5625 0 0  0.625 0 0  0.6875 0 0  0.75 0 0  0.8125 0 0  0.875 0 0  0.9375 0 0  1 0 0  1.0625 0 0  1.125 0 0  1.1875 0 0  1.25 0 0  1.3125 0 0  1.375 0 0  1.4375 0 0  1.5 0 0  1.5625 0 0  1.625 0 0  1.6875 0 0  1.75 0 0  1.8125 0 0  1.875 0 0  1.9375 0 0  2 0 0  0 0.0625 0  0.0625 0.0625 0  0.125 0.0625 0  0.1875 0.0625 0  0.25 0.0625 0  0.3125 0.0625 0  0.375 0.0625 0  0.4375 0.0625 0  0.5 0.0625 0  0.5625 0.0625 0  0.625 0.0625 0  0.6875 0.0625 0  0.75 0.0625 0  0.8125 0.0625 0  0.875 0.0625 0  0.9375 0.0625 0  1 0.0625 0  1.0625 0.0625 0  1.125 0.0625 0  1.1875 0.0625 0  1.25 0.0625 0  1.3125 0.0625 0  1.375 0.0625 0  1.4375 0.0625 0  1.5 0.0625 0  1.5625 0.0625 0  1.625 0.0625 0  1.6875 0.0625 0  1.75 0.0625 0  1.8125 0.0625 0  1.875 0.0625 0  1.9375 0.0625 0  2 0.0625 0  0 0.125 0  0.0625 0.125 0  0.125 0.125 0  0.1875 0.125 0  0.25 0.125 0  0.3125 0.125 0  0.375 0.125 0  0.4375 0.125 0  0.5 0.125 0  0.5625 0.125 0  0.625 0.125 0  0.6875 0.125 0  0.75 0.125 0  0.8125 0.125 0  0.875 0.125 0  0.9375 0.125 0  1 0.125 0  1.0625 0.125 0  1.125 0.125 0  1.1875 0.125 0  1.25 0.125 0  1.3125 0.125 0  1.375 0.125 0  1.4375 0.125 0  1.5 0.125 0  1.5625 0.125 0  1.625 0.125 0  1.6875 0.125 0  1.75 0.125 0  1.8125 0.125 0  1.875 0.125 0  1.9375 0.125 0  2 0.125 0  0 0.1875 0  0.0625 0.1875 0  0.125 0.1875 0  0.1875 0.1875 0  0.25 0.1875 0  0.3125 0.1875 0  0.375 0.1875 0  0.4375 0.1875 0  0.5 0.1875 0  0.5625 0.1875 0  0.625 0.1875 0  0.6875 0.1875 0  0.75 0.1875 0  0.8125 0.1875 0  0.875 0.1875 0  0.9375 0.1875 0  1 0.1875 0  1.0625 0.1875 0  1.125 0.1875 0  1.1875 0.1875 0  1.25 0.1875 0  1.3125 0.1875 0  1.375 0.1875 0  1.4375 0.1875 0  1.5 0.1875 0  1.5625 0.1875 0  1.625 0.1875 0  1.6875 0.1875 0  1.75 0.1875 0  1.8125 0.1875 0  1.875 0.1875 0  1.9375 0.1875 0  2 0.1875 0  0 0.25 0  0.0625 0.25 0  0.125 0.25 0  0.1875 0.25 0  0.25 0.25 0  0.3125 0.25 0  0.375 0.25 0  0.4375 0.25 0  0.5 0.25 0  0.5625 0.25 0  0.625 0.25 0  0.6875 0.25 0  0.75 0.25 0  0.8125 0.25 0  0.875 0.25 0  0.9375 0.25 0  1 0.25 0  1.0625 0.25 0  1.125 0.25 0  1.1875 0.25 0  1.25 0.25 0  1.3125 0.25 0  1.375 0.25 0  1.4375 0.25 0  1.5 0.25 0  1.5625 0.25 0  1.625 0.25 0  1.6875 0.25 0  1.75 0.25 0  1.8125 0.25 0  1.875 0.25 0  1.9375 0.25 0  2 0.25 0  0 0.3125 0  0.0625 0.3125 0  0.125 0.3125 0  0.1875 0.3125 0  0.25 0.3125 0  0.3125 0.3125 0  0.375 0.3125 0  0.4375 0.3125 0  0.5 0.3125 0  0.5625 0.3125 0  0.625 0.3125 0  0.6875 0.3125 0  0.75 0.3125 0  0.8125 0.3125 0  0.875 0.3125 0  0.9375 0.3125 0  1 0.3125 0  1.0625 0.3125 0  1.125 0.3125 0  1.1875 0.3125 0  1.25 0.3125 0  1.3125 0.3125 0  1.375 0.3125 0  1.4375 0.3125 0  1.5 0.3125 0  1.5625 0.3125 0  1.625 0.3125 0  1.6875 0.3125 0  1.75 0.3125 0  1.8125 0.3125 0  1.875 0.3125 0  1.9375 0.3125 0  2 0.3125 0  0 0.375 0  0.0625 0.375 0  0.125 0.375 0  0.1875 0.375 0  0.25 0.375 0  0.3125 0.375 0  0.375 0.375 0  0.4375 0.375 0  0.5 0.375 0  0.5625 0.375 0  0.625 0.375 0  0.6875 0.375 0  0.75 0.375 0  0.8125 0.375 0  0.875 0.375 0  0.9375 0.375 0  1 0.375 0  1.0625 0.375 0  1.125 0.375 0  1.1875 0.375 0  1.25 0.375 0  1.3125 0.375 0  1.375 0.375 0  1.4375 0.375 0  1.5 0.375 0  1.5625 0.375 0  1.625 0.375 0  1.6875 0.375 0  1.75 0.375 0  1.8125 0.375 0  1.875 0.375 0  1.9375 0.375 0  2 0.375 0  0 0.4375 0  0.0625 0.4375 0  0.125 0.4375 0  0.1875 0.4375 0  0.25 0.4375 0  0.3125 0.4375 0  0.375 0.4375 0  0.4375 0.4375 0  0.5 0.4375 0  0.5625 0.4375 0  0.625 0.4375 0  0.6875 0.4375 0  0.75 0.4375 0  0.8125 0.4375 0  0.875 0.4375 0  0.9375 0.4375 0  1 0.4375 0  1.0625 0.4375 0  1.125 0.4375 0  1.1875 0.4375 0  1.25 0.4375 0  1.3125 0.4375 0  1.375 0.4375 0  1.4375 0.4375 0  1.5 0.4375 0  1.5625 0.4375 0  1.625 0.4375 0  1.6875 0.4375 0  1.75 0.4375 0  1.8125 0.4375 0  1.875 0.4375 0  1.9375 0.4375 0  2 0.4375 0  0 0.5 0  0.0625 0.5 0  0.125 0.5 0  0.1875 0.5 0  0.25 0.5 0  0.3125 0.5 0  0.375 0.5 0  0.4375 0.5 0  0.5 0.5 0  0.5625 0.5 0  0.625 0.5 0  0.6875 0.5 0  0.75 0.5 0  0.8125 0.5 0  0.875 0.5 0  0.9375 0.5 0  1 0.5 0  1.0625 0.5 0  1.125 0.5 0  1.1875 0.5 0  1.25 0.5 0  1.3125 0.5 0  1.375 0.5 0  1.4375 0.5 0  1.5 0.5 0  1.5625 0.5 0  1.625 0.5 0  1.6875 0.5 0  1.75 0.5 0  1.8125 0.5 0  1.875 0.5 0  1.9375 0.5 0  2 0.5 0  0 0.5625 0  0.0625 0.5625 0  0.125 0.5625 0  0.1875 0.5625 0  0.25 0.5625 0  0.3125 0.5625 0  0.375 0.5625 0  0.4375 0.5625 0  0.5 0.5625 0  0.5625 0.5625 0  0.625 0.5625 0  0.6875 0.5625 0  0.75 0.5625 0  0.8125 0.5625 0  0.875 0.5625 0  0.9375 0.5625 0  1 0.5625 0  1.0625 0.5625 0  1.125 0.5625 0  1.1875 0.5625 0  1.25 0.5625 0  1.3125 0.5625 0  1.375 0.5625 0  1.4375 0.5625 0  1.5 0.5625 0  1.5625 0.5625 0  1.625 0.5625 0  1.6875 0.5625 0  1.75 0.5625 0  1.8125 0.5625 0  1.875 0.5625 0  1.9375 0.5625 0  2 0.5625 0  0 0.625 0  0.0625 0.625 0  0.125 0.625 0  0.1875 0.625 0  0.25 0.625 0  0.3125 0.625 0  0.375 0.625 0  0.4375 0.625 0  0.5 0.625 0  0.5625 0.625 0  0.625 0.625 0  0.6875 0.625 0  0.75 0.625 0  0.8125 0.625 0  0.875 0.625 0  0.9375 0.625 0  1 0.625 0  1.0625 0.625 0  1.125 0.625 0  1.1875 0.625 0  1.25 0.625 0  1.3125 0.625 0  1.375 0.625 0  1.4375 0.625 0  1.5 0.625 0  1.5625 0.625 0  1.625 0.625 0  1.6875 0.625 0  1.75 0.625 0  1.8125 0.625 0  1.875 0.625 0  1.9375 0.625 0  2 0.625 0  0 0.6875 0  0.0625 0.6875 0  0.125 0.6875 0  0.1875 0.6875 0  0.25 0.6875 0  0.3125 0.6875 0  0.375 0.6875 0  0.4375 0.6875 0  0.5 0.6875 0  0.5625 0.6875 0  0.625 0.6875 0  0.6875 0.6875 0  0.75 0.6875 0  0.8125 0.6875 0  0.875 0.6875 0  0.9375 0.6875 0  1 0.6875 0  1.0625 0.6875 0  1.125 0.6875 0  1.1875 0.6875 0  1.25 0.6875 0  1.3125 0.6875 0  1.375 0.6875 0  1.4375 0.6875 0  1.5 0.6875 0  1.5625 0.6875 0  1.625 0.6875 0  1.6875 0.6875 0  1.75 0.6875 0  1.8125 0.6875 0  1.875 0.6875 0  1.9375 0.6875 0  2 0.6875 0  0 0.75 0  0.0625 0.75 0  0.125 0.75 0  0.1875 0.75 0  0.25 0.75 0  0.3125 0.75 0  0.375 0.75 0  0.4375 0.75 0  0.5 0.75 0  0.5625 0.75 0  0.625 0.75 0  0.6875 0.75 0  0.75 0.75 0  0.8125 0.75 0  0.875 0.75 0  0.9375 0.75 0  1 0.75 0  1.0625 0.75 0  1.125 0.75 0  1.1875 0.75 0  1.25 0.75 0  1.3125 0.75 0  1.375 0.75 0  1.4375 0.75 0  1.5 0.75 0  1.5625 0.75 0  1.625 0.75 0  1.6875 0.75 0  1.75 0.75 0  1.8125 0.75 0  1.875 0.75 0  1.9375 0.75 0  2 0.75 0  0 0.8125 0  0.0625 0.8125 0  0.125 0.8125 0  0.1875 0.8125 0  0.25 0.8125 0  0.3125 0.8125 0  0.375 0.8125 0  0.4375 0.8125 0  0.5 0.8125 0  0.5625 0.8125 0  0.625 0.8125 0  0.6875 0.8125 0  0.75 0.8125 0  0.8125 0.8125 0  0.875 0.8125 0  0.9375 0.8125 0  1 0.8125 0  1.0625 0.8125 0  1.125 0.8125 0  1.1875 0.8125 0  1.25 0.8125 0  1.3125 0.8125 0  1.375 0.8125 0  1.4375 0.8125 0  1.5 0.8125 0  1.5625 0.8125 0  1.625 0.8125 0  1.6875 0.8125 0  1.75 0.8125 0  1.8125 0.8125 0  1.875 0.8125 0  1.9375 0.8125 0  2 0.8125 0  0 0.875 0  0.0625 0.875 0  0.125 0.875 0  0.1875 0.875 0  0.25 0.875 0  0.3125 0.875 0  0.375 0.875 0  0.4375 0.875 0  0.5 0.875 0  0.5625 0.875 0  0.625 0.875 0  0.6875 0.875 0  0.75 0.875 0  0.8125 0.875 0  0.875 0.875 0  0.9375 0.875 0  1 0.875 0  1.0625 0.875 0  1.125 0.875 0  1.1875 0.875 0  1.25 0.875 0  1.3125 0.875 0  1.375 0.875 0  1.4375 0.875 0  1.5 0.875 0  1.5625 0.875 0  1.625 0.875 0  1.6875 0.875 0  1.75 0.875 0  1.8125 0.875 0  1.875 0.875 0  1.9375 0.875 0  2 0.875 0  0 0.9375 0  0.0625 0.9375 0  0.125 0.9375 0  0.1875 0.9375 0  0.25 0.9375 0  0.3125 0.9375 0  0.375 0.9375 0  0.4375 0.9375 0  0.5 0.9375 0  0.5625 0.9375 0  0.625 0.9375 0  0.6875 0.9375 0  0.75 0.9375 0  0.8125 0.9375 0  0.875 0.9375 0  0.9375 0.9375 0  1 0.9375 0  1.0625 0.9375 0  1.125 0.9375 0  1.1875 0.9375 0  1.25 0.9375 0  1.3125 0.9375 0  1.375 0.9375 0  1.4375 0.9375 0  1.5 0.9375 0  1.5625 0.9375 0  1.625 0.9375 0  1.6875 0.9375 0  1.75 0.9375 0  1.8125 0.9375 0  1.875 0.9375 0  1.9375 0.9375 0  2 0.9375 0  0 1 0  0.0625 1 0  0.125 1 0  0.1875 1 0  0.25 1 0  0.3125 1 0  0.375 1 0  0.4375 1 0  0.5 1 0  0.5625 1 0  0.625 1 0  0.6875 1 0  0.75 1 0  0.8125 1 0  0.875 1 0  0.9375 1 0  1 1 0  1.0625 1 0  1.125 1 0  1.1875 1 0  1.25 1 0  1.3125 1 0  1.375 1 0  1.4375 1 0  1.5 1 0  1.5625 1 0  1.625 1 0  1.6875 1 0  1.75 1 0  1.8125 1 0  1.875 1 0  1.9375 1 0  2 1 0  0 0 0.0625  0.0625 0 0.0625  0.125 0 0.0625  0.1875 0 0.0625  0.25 0 0.0625  0.3125 0 0.0625  0.375 0 0.0625  0.4375 0 0.0625  0.5 0 0.0625  0.5625 0 0.0625  0.625 0 0.0625  0.6875 0 0.0625  0.75 0 0.0625  0.8125 0 0.0625  0.875 0 0.0625  0.9375 0 0.0625  1 0 0.0625  1.0625 0 0.0625  1.125 0 0.0625  1.1875 0 0.0625  1.25 0 0.0625  1.3125 0 0.0625  1.375 0 0.0625  1.4375 0 0.0625  1.5 0 0.0625  1.5625 0 0.0625  1.625 0 0.0625  1.6875 0 0.0625  1.75 0 0.0625  1.8125 0 0.0625  1.875 0 0.0625  1.9375 0 0.0625  2 0 0.0625  0 0.0625 0.0625  0.0625 0.0625 0.0625  0.125 0.0625 0.0625  0.1875 0.0625 0.0625  0.25 0.0625 0.0625  0.3125 0.0625 0.0625  0.375 0.0625 0.0625  0.4375 0.0625 0.0625  0.5 0.0625 0.0625  0.5625 0.0625 0.0625  0.625 0.0625 0.0625  0.6875 0.0625 0.0625  0.75 0.0625 0.0625  0.8125 0.0625 0.0625  0.875 0.0625 0.0625  0.9375 0.0625 0.0625  1 0.0625 0.0625  1.0625 0.0625 0.0625  1.125 0.0625 0.0625  1.1875 0.0625 0.0625  1.25 0.0625 0.0625  1.3125 0.0625 0.0625  1.375 0.0625 0.0625  1.4375 0.0625 0.0625  1.5 0.0625 0.0625  1.5625 0.0625 0.0625  1.625 0.0625 0.0625  1.6875 0.0625 0.0625  1.75 0.0625 0.0625  1.8125 0.0625 0.0625  1.875 0.0625 0.0625  1.9375 0.0625 0.0625  2 0.0625 0.0625  0 0.125 0.0625  0.0625 0.125 0.0625  0.125 0.125 0.0625  0.1875 0.125 0.0625  0.25 0.125 0.0625  0.3125 0.125 0.0625  0.375 0.125 0.0625  0.4375 0.125 0.0625  0.5 0.125 0.0625  0.5625 0.125 0.0625  0.625 0.125 0.0625  0.6875 0.125 0.0625  0.75 0.125 0.0625  0.8125 0.125 0.0625  0.875 0.125 0.0625  0.9375 0.125 0.0625  1 0.125 0.0625  1.0625 0.125 0.
[...]
<PointData  Vectors="f_35"> 
<DataArray  type="Float64"  Name="f_35"  NumberOfComponents="3" format="ascii">0.0000000000000000e+00 0.0000000000000000e+00 0.0000000000000000e+00  4.5822068574601311e-02 3.6491333826341371e-02 1.9831754841547030e-02  7.9773710351971797e-02 6.1170686303573217e-02 2.3862381037451856e-02  1.0925400627977433e-01 8.1750069495726163e-02 2.2161466215978302e-02  1.3701006736832802e-01 9.9799444598976411e-02 1.7341869786639156e-02  1.6426239054668024e-01 1.1600893950243327e-01 1.0540555536446516e-02  1.9158956176080905e-01 1.3083796403955791e-01 2.3939822355977924e-03  2.1926031630642595e-01 1.4463203892868182e-01 -6.6969312459094106e-03  2.4738319000669742e-01 1.5765705821603943e-01 -1.6462259426647287e-02  2.7598204458821768e-01 1.7011604044625936e-01 -2.6712062933941835e-02  3.0503700137391565e-01 1.8216234816127497e-01 -3.7309627855541296e-02  3.3450793788567290e-01 1.9391119444363775e-01 -4.8156320480088666e-02  3.6434855096871177e-01 2.0544900043750244e-01 -5.9180811492998669e-02  3.9451460493073631e-01 2.1684037768463613e-01 -7.0330830119593429e-02  4.2496870228481815e-01 2.2813362501643136e-01 -8.1567960326205960e-02  4.5568344538492506e-01 2.3936529710646298e-01 -9.2864216911823699e-02  4.8664372320075466e-01 2.5056379992504868e-01 -1.0419743345364429e-01  5.1784773525038852e-01 2.6175320258731494e-01 -1.1554622174363058e-01  5.4930685805865942e-01 2.7295807492005764e-01 -1.2688809897293807e-01  5.8104533259732216e-01 2.8420863714743094e-01 -1.3819788326916901e-01  6.1309933772033498e-01 2.9554397380692349e-01 -1.4944364038821595e-01  6.4551486790108292e-01 3.0701570623198915e-01 -1.6058195098326497e-01  6.7834415974768503e-01 3.1869402983481698e-01 -1.7155423188933949e-01  7.1163878098673738e-01 3.3067481821649541e-01 -1.8228112215562681e-01  7.4543807222741787e-01 3.4308693496383308e-01 -1.9265351365472971e-01  7.7975176007071900e-01 3.5610113335231036e-01 -2.0252196084660651e-01  8.1452813373499744e-01 3.6994126159564061e-01 -2.1167995525293754e-01  8.4959974173437780e-01 3.8489612633437953e-01 -2.1983030953314048e-01  8.8459103475888612e-01 4.0133451902856987e-01 -2.2653078616923686e-01  9.1874813989006365e-01 4.1972290878546414e-01 -2.3108651237917849e-01  9.5065456829433859e-01 4.4065524637967601e-01 -2.3230501545770307e-01  9.7787532022167090e-01 4.6513447042953521e-01 -2.2774440165500739e-01  1.0000000139904632e+00 5.0000000699523162e-01 -2.0710678408406727e-01  0.0000000000000000e+00 0.0000000000000000e+00 0.0000000000000000e+00  3.5491512965286354e-02 2.7494879225843014e-02 2.1857313489628737e-02  6.6946345615939470e-02 5.2331423124821599e-02 2.6711832073807097e-02  9.6283006258504306e-02 7.3358958163169147e-02 2.6281354944193334e-02  1.2464622381168820e-01 9.1623806752380438e-02 2.2849483912880053e-02  1.5269603605916990e-01 1.0788044512283831e-01 1.7461429623169669e-02  1.8079782258425139e-01 1.2266247370810837e-01 1.0731236649400434e-02  2.0914386333535134e-01 1.3636282414474427e-01 3.0547597533768945e-03  2.3782416162092482e-01 1.4927562281896212e-01 -5.2987479205940206e-03  2.6686810072820216e-01 1.6161992958343638e-01 -1.4138835366710584e-02  2.9626983182650068e-01 1.7355760835418421e-01 -2.3328052062465736e-02  3.2600499561879870e-01 1.8520775430328262e-01 -3.2767264613557640e-02  3.5604204433631087e-01 1.9665771552281802e-01 -4.2384818089937958e-02  3.8634922789697229e-01 2.0797117826397740e-01 -5.2128108194925672e-02  4.1689882470014927e-01 2.1919450936999271e-01 -6.1958508454124525e-02  4.4767020022588472e-01 2.3036162356879072e-01 -7.1847839164783198e-02  4.7865198004668852e-01 2.4149782279256629e-01 -8.1773761861218125e-02  5.0984264833586279e-01 2.5262401309670807e-01 -9.1715007774381810e-02  5.4125022156633940e-01 2.6376179702444830e-01 -1.0164919933736213e-01  5.7289252044596217e-01 2.7493868065496213e-01 -1.1155128570926112e-01  6.0479623553282602e-01 2.8619124283313835e-01 -1.2138892682020844e-01  6.3699400727885880e-01 2.9756938694660812e-01 -1.3111828276798335e-01  6.6952090072842296e-01 3.0914299617281021e-01 -1.4068040231560400e-01  7.0240913530732130e-01 3.2100998909650369e-01 -1.4999488072339442e-01  7.3567863817675860e-01 3.3330433430933704e-01 -1.5895101655808713e-01  7.6932409529876045e-01 3.4620493202772479e-01 -1.6739761132693387e-01  8.0329629900289168e-01 3.5994850650387494e-01 -1.7512650067398611e-01  8.3747526164330099e-01 3.7484035205721472e-01 -1.8183891109243080e-01  8.7163639603764076e-01 3.9126182314930447e-01 -1.8708964782445589e-01  9.0540393952733722e-01 4.0966905265562342e-01 -1.9018041791735046e-01  9.3821297354332711e-01 4.3054909206394637e-01 -1.8988885386162746e-01  9.6939818249411269e-01 4.5438759211745627e-01 -1.8368417117371635e-01  1.0000000139904632e+00 4.8169418056328389e-01 -1.6291260964161106e-01  0.0000000000000000e+00 0.0000000000000000e+00 0.0000000000000000e+00  3.2581654183224222e-02 2.3032669885565946e-02 2.2590275001110008e-02  6.1137397149410577e-02 4.5372993448958496e-02 2.9614979016666647e-02  8.9296667723066367e-02 6.5645084157872943e-02 3.0756527733862178e-02  1.1743033474798426e-01 8.3623550994878948e-02 2.8725130915964146e-02  1.4569673152282273e-01 9.9717472322354048e-02 2.4687590483525215e-02  1.7419692501577960e-01 1.1437086227688248e-01 1.9294040734614087e-02  2.0298851836514825e-01 1.2795457779746255e-01 1.2954574796075341e-02  2.3209536341126968e-01 1.4075898081712884e-01 5.9449148108171798e-03  2.6151717999402102e-01 1.5300405526533775e-01 -1.5422381133199728e-03  2.9123771003791576e-01 1.6485314871817344e-01 -9.3696472797594136e-03  3.2123192930881894e-01 1.7642577235089643e-01 -1.7439031902062696e-02  3.5147197327706614e-01 1.8780852329812442e-01 -2.5679630330532943e-02  3.8193117879067051e-01 1.9906357426981219e-01 -3.4040183476445073e-02  4.1258677434729829e-01 2.1023522750687121e-01 -4.2483720483831949e-02  4.4342198867287730e-01 2.2135496881741135e-01 -5.0983305392212235e-02  4.7442748865727685e-01 2.3244565765921296e-01 -5.9517538140564694e-02  5.0560175266481344e-01 2.4352605198475030e-01 -6.8066961319618827e-02  5.3695107711980705e-01 2.5461565574104966e-01 -7.6611431696931145e-02  5.6848956126394201e-01 2.6573918864253337e-01 -8.5126888619733346e-02  6.0023834959119082e-01 2.7693070698914013e-01 -9.3582334177682372e-02  6.3222376558169502e-01 2.8823852323415744e-01 -1.0193589604307852e-01  6.6447529130286598e-01 2.9973098682925597e-01 -1.1012964314799270e-01  6.9702261280277222e-01 3.1150380266195948e-01 -1.1808323890472316e-01  7.2989111110072435e-01 3.2368836516337357e-01 -1.2568601600467541e-01  7.6309615021964483e-01 3.3645816587019850e-01 -1.3278361116622131e-01  7.9663596461468766e-01 3.5003802828575892e-01 -1.3915966074740541e-01  8.3048542083490851e-01 3.6470747844632107e-01 -1.4450115067291117e-01  8.6458743779812564e-01 3.8078821366432680e-01 -1.4833611910889388e-01  8.9883229256234143e-01 3.9861761632899445e-01 -1.4992360262546572e-01  9.3300692019101317e-01 4.1844994511441702e-01 -1.4800163559652596e-01  9.6667897016120918e-01 4.4028394209425203e-01 -1.4013129312856287e-01  1.0000000139904632e+00 4.6338835413133611e-01 -1.1871843519915497e-01  0.0000000000000000e+00 0.0000000000000000e+00 0.0000000000000000e+00  3.1890930705705658e-02 2.0335249343833055e-02 2.3545366326704658e-02  5.9177627635143448e-02 4.0237133622148313e-02 3.2309443848841470e-02  8.6267033500742440e-02 5.8955248419897445e-02 3.5172758949671951e-02  1.1387525739186323e-01 7.6094149267281044e-02 3.4653944122954958e-02  1.4202469160687070e-01 9.1712912118265211e-02 3.2011689992827733e-02  1.7065038195293822e-01 1.0607341502182224e-01 2.7960670867789739e-02  1.9968939541698311e-01 1.1946153841292637e-01 2.2945231963547176e-02  2.2908915345014436e-01 1.3212713105091745e-01 1.7258345501731991e-02  2.5880412589409441e-01 1.4426969729236203e-01 1.1100748116352421e-02  2.8879323933308376e-01 1.5604159999756981e-01 4.6127540774434112e-03  3.1901930610524371e-01 1.6755554520035706e-01 -2.1067785952298638e-03  3.4944953876986218e-01 1.7889329022953745e-01 -8.9878172015708108e-03  3.8005611593182520e-01 1.9011336902071543e-01 -1.5980775264663821e-02  4.1081688526992122e-01 2.0125699471866104e-01 -2.3050727529532737e-02  4.4171621577024756e-01 2.1235292725773777e-01 -3.0172602011490302e-02  4.7274552396829683e-01 2.2342172815116140e-01 -3.7326926944471379e-02  5.0390331773698804e-01 2.3448015614495846e-01 -4.4496571541208098e-02  5.3519520127392850e-01 2.4554546707467140e-01 -5.1663500205530614e-02  5.6663353673349270e-01 2.5663957769697243e-01 -5.8805660870230439e-02  5.9823749741504839e-01 2.6779335417339412e-01 -6.5894518245941031e-02  6.3003300750462665e-01 2.7905149578324129e-01 -7.2890032929672291e-02  6.6205246171316323e-01 2.9047719714514086e-01 -7.9734968311279630e-02  6.9433397952964149e-01 3.0215771846087824e-01 -8.6348312030009408e-02  7.2692047497997292e-01 3.1421241373464087e-01 -9.2616850002710735e-02  7.5985909675546059e-01 3.2679662816840349e-01 -9.8380693335971006e-02  7.9320065545897145e-01 3.4010343506167179e-01 -1.0341214046094560e-01  8.2699831830615866e-01 3.5436129539618921e-01 -1.0737901730110296e-01  8.6129513572518102e-01 3.6981059550073159e-01 -1.0978211525611016e-01  8.9608060117068966e-01 3.8666442011250285e-01 -1.0984972190804353e-01  9.3117731959556027e-01 4.0501394616726177e-01 -1.0631860376845190e-01  9.6597082046543592e-01 4.2468853225651132e-01 -9.6880595928955371e-02  1.0000000139904632e+00 4.4508252769938828e-01 -7.4524260756698754e-02  0.0000000000000000e+00 0.0000000000000000e+00 0.0000000000000000e+00  3.2126589343667050e-02 1.8347025428084633e-02 2.4699007237612775e-02  5.9094447330250877e-02 3.6142853828532294e-02 3.4982576727897501e-02  8.5655865586955676e-02 5.3151620080601390e-02 3.9466298618719864e-02  1.1284687593372435e-01 6.9114163358079031e-02 4.0491646682871647e-02  1.4080087822024806e-01 8.3979094093396475e-02 3.9291181276283754e-02  1.6942036035586230e-01 9.7861678628441529e-02 3.6614853153329775e-02  1.9857917590663052e-01 1.1094509210551430e-01 3.2940278129029069e-02  2.2816710636197238e-01 1.2341532533381977e-01 2.8582034288658180e-02  2.5809642079096212e-01 1.3543296998935381e-01 2.3753164976198525e-02  2.8829809480291652e-01 1.4712640950613950e-01 1.8600240781401881e-02  3.1871786594465418e-01 1.5859296173963275e-01 1.3224609307944470e-02  3.4931326276551661e-01 1.6990411570360117e-01 7.6965115119445263e-03  3.8005152025192518e-01 1.8111150214233959e-01 2.0644245092883932e-03  4.1090840180283522e-01 1.9225131843148344e-01 -3.6384106852083015e-03  4.4186760858151530e-01 2.0334847543078333e-01 -9.3887808410127137e-03  4.7292033802308475e-01 2.1442069134577882e-01 -1.5169270575362957e-02  5.0406489503645557e-01 2.2548232246521896e-01 -2.0964962076028069e-02  5.3530652407016777e-01 2.3654804815876579e-01 -2.6760114950454321e-02  5.6665739729446141e-01 2.4763641408481346e-01 -3.2534915284019049e-02  5.9813743994202473e-01 2.5877347575068360e-01 -3.8262952409749806e-02  6.2977568100997805e-01 2.6999712691519961e-01 -4.3905381390310055e-02  6.6161123139435707e-01 2.8136103533519929e-01 -4.9404835047107958e-02  6.9369385104129566e-01 2.9293848448313725e-01 -5.4679537559179203e-02  7.2608532245037694e-01 3.0482904628116847e-01 -5.9613544384349890e-02  7.5886203088581805e-01 3.1715982829684347e-01 -6.4039300742504954e-02  7.9211447701350346e-01 3.3008184112384809e-01 -6.7716164989743186e-02  8.2593991583484561e-01 3.4376646403959349e-01 -7.0295540699919459e-02  8.6041913025140093e-01 3.5837985361432001e-01 -7.1259022782060089e-02  8.9554716700069548e-01 3.7404608128628286e-01 -6.9818877442615307e-02  9.3106813879229766e-01 3.9078280218958539e-01 -6.4731371945917549e-02  9.6614905313832644e-01 4.0844018282566247e-01 -5.3805498660142732e-02  1.0000000139904632e+00 4.2677670126744055e-01 -3.0330086314242548e-02  0.0000000000000000e+00 0.0000000000000000e+00 0.0000000000000000e+00  3.2825745755302900e-02 1.6639605790212276e-02 2.5967550606034860e-02  5.9997962591454852e-02 3.2575045644206921e-02 3.7666922503167818e-02  8.6475870211957157e-02 4.7916574993363603e-02 4.3665924769921115e-02  1.1350004196235888e-01 6.2577409486119881e-02 4.6199822929635974e-02  1.4133731661079688e-01 7.6514105164284696e-02 4.6453850378169598e-02  1.6993609461547096e-01 8.9769849877125593e-02 4.5178460124117720e-02  1.9915961016908693e-01 1.0244424786350415e-01 4.2869044471967085e-02  2.2887065620141253e-01 1.1465597866905304e-01 3.9858059069316991e-02  2.5895328186864069e-01 1.2651696080531602e-01 3.6370846815409016e-02  2.8931589839698341e-01 1.3812201473809751e-01 3.2561395131789427e-02  3.1988834514451547e-01 1.4954561575608355e-01 2.8534740982781040e-02  3.5061785161291376e-01 1.6084362134121136e-01 2.4362334093491856e-02  3.8146560850317174e-01 1.7205701069992294e-01 2.0092396212828503e-02  4.1240426026211063e-01 1.8321454637187912e-01 1.5757192402573079e-02  4.4341599499406714e-01 1.9433589472668586e-01 1.1378555861237757e-02  4.7449111971807068e-01 2.0543512229964675e-01 6.9721188908102262e-03  5.0562731793496629e-01 2.1652357852892790e-01 2.5506301512299677e-03  5.3682985492505442e-01 2.2761249604931616e-01 -1.8722915398971633e-03  5.6811179852235905e-01 2.3871581145018078e-01 -6.2786479395961631e-03  5.9949514682721283e-01 2.4985301150238676e-01 -1.0643192188959502e-02  6.3101240318759277e-01 2.6105270638033057e-01 -1.4928023056541014e-02  6.6270841195416497e-01 2.7235543574553028e-01 -1.9076052335091537e-02  6.9464287442078598e-01 2.8381589489734732e-01 -2.3004344824542226e-02  7.2689344721837645e-01 2.9550812337338284e-01 -2.6592854079834961e-02  7.5955674873988899e-01 3.0752495961119081e-01 -2.9666971243421221e-02  7.9274470861303448e-01 3.1997305536944420e-01 -3.1976494516091081e-02  8.2657233909427752e-01 3.3297032462334419e-01 -3.3159451833957035e-02  8.6112094296574504e-01 3.4662425809487518e-01 -3.2684758218116707e-02  8.9634974382941013e-01 3.6100720259048452e-01 -2.9762372297975234e-02  9.3190425606143035e-01 3.7612442786626948e-01 -2.3175534812207271e-02  9.6677431916297651e-01 3.9191932904180665e-01 -1.0824803139802967e-02  1.0000000139904632e+00 4.0847087483549283e-01 1.3864088128213605e-02  0.0000000000000000e+00 0.0000000000000000e+00 0.0000000000000000e+00  3.3778158387852995e-02 1.5017627894503772e-02 2.7292576890842711e-02  6.1456671824945484e-02 2.9228620872331079e-02 4.0345139347796259e-02  8.8157345672471965e-02 4.2973050885829561e-02 4.7781204837300154e-02  1.1525072116475191e-01 5.6309236845431078e-02 5.1774819901012667e-02  1.4310800034773971e-01 6.9237991655431111e-02 5.3471408624025815e-02  1.7173718102182581e-01 8.1775727629756406e-02 5.3608177640237419e-02  2.0102330473407079e-01 9.3965850700157866e-02 5.2684854405698617e-02  2.3082687522663825e-01 1.0586741616895479e-01 5.1042662846546891e-02  2.6102072829050865e-01 1.1754241958637759e-01 4.8916344837926215e-02  2.9150068531233414e-01 1.2904734113508448e-01 4.6466206432178789e-02  3.2218610516052815e-01 1.4042870899273158e-01 4.3801085027741257e-02  3.5301671440869975e-01 1.5172266625821920e-01 4.0994316609021780e-02  3.8394882833252025e-01 1.6295626281739856e-01 3.8094585202740769e-02  4.1495213749637005e-01 1.7414859442074865e-01 3.5133730021519934e-02  4.4600690663250425e-01 1.8531289935405068e-01 3.2132545699395311e-02  4.7710230181564783e-01 1.9645883088845534e-01 2.9105241740218862e-02  5.0823582597605321e-01 2.0759384485396595e-01 2.6063198845857519e-02  5.3941318033102725e-01 2.1872466613269101e-01 2.3018811253169180e-02  5.7064801390305231e-01 2.2985970522923532e-01 1.9988743725857461e-02  6.0196327161215946e-01 2.4101092441005387e-01 1.6996493271763186e-02  6.3339383523368276e-01 2.5219568823108401e-01 1.4079330260053265e-02  6.6498894880227644e-01 2.6343855745259204e-01 1.1294806242324795e-02  6.9681458666195273e-01 2.7477204825454282e-01 8.7273602577063979e-03  7.2895622925602377e-01 2.8624119367014517e-01 6.5001363187807935e-03  7.6151965636147023e-01 2.9790258447599660e-01 4.7933491165456582e-03  7.9462399382380833e-01 3.0981860665564015e-01 3.8644539876723600e-03  8.2838349976643622e-01 3.2206006149166433e-01 4.0825677408945805e-03  8.6286376516366936e-01 3.3469089649492489e-01 5.9845328328712796e-03  8.9797799291728497e-01 3.4775627446538282e-01 1.0356900387709419e-02  9.3328303730027395e-01 3.6128122345208014e-01 1.8388758831452461e-02  9.6764005378881113e-01 3.7531279541189255e-01 3.2111133831898182e-02  1.0000000139904632e+00 3.9016504840354499e-01 5.8058262570669816e-02  0.0000000000000000e+00 0.0000000000000000e+00 0.0000000000000000e+00  3.4871227015671975e-02 1.3376577034250520e-02 2.8634277892790255e-02  6.3237974256379434e-02 2.5913294475665032e-02 4.2991093678976029e-02  9.0366825614504417e-02 3.8110622963918643e-02 5.1804712726504061e-02  1.1771405459371279e-01 5.0137493320972532e-02 5.7213796014150615e-02  1.4572328437288662e-01 6.2038831104594613e-02 6.0333044724765972e-02  1.7445597954411490e-01 7.3821874210086361e-02 6.1883728405278768e-02  2.0382827261792652e-01 8.5489607778157117e-02 6.2360654985165027e-02  2.3371450567276345e-01 9.7051974199229785e-02 6.2107936593572138e-02  2.6399154947542780e-01 1.0852304692337443e-01 6.1363493888540857e-02  2.9455266454898738e-01 1.1992021222978512e-01 6.0292322147135209e-02  3.2531410245906517e-01 1.3125981107211171e-01 5.9006052149668642e-02  3.5621243973844507e-01 1.4255592620389965e-01 5.7579791635327726e-02  3.8720168475172201e-01 1.5381969824171876e-01 5.6063002979101245e-02  4.1824990705398529e-01 1.6505910628384846e-01 5.4487455091686447e-02  4.4933631331922985e-01 1.7628008353327004e-01 5.2873525289300678e-02  4.8044950191017416e-01 1.8748706725360678e-01 5.1234815707255396e-02  5.1158681067022638e-01 1.9868284976677181e-01 4.9581880027472450e-02  5.4275393070840106e-01 2.0986922416259837e-01 4.7926308545533078e-02  5.7396434670744811e-01 2.2104887391085182e-01 4.6283645850545167e-02  6.0524098822801586e-01 2.3222558304179469e-01 4.4676755673272589e-02  6.3661923472382531e-01 2.4340435390359008e-01 4.3142265567953350e-02  6.6814918704080251e-01 2.5459206522039168e-01 4.1737880628568279e-02  6.9989761309577181e-01 2.6579758091726802e-01 4.0549461237909257e-02  7.3195022603651627e-01 2.7703500882201099e-01 3.9702563461390068e-02  7.6441154419015733e-01 2.8832358162632776e-01 3.9379483689132112e-02  7.9739704604725492e-01 2.9968250261120588e-01 3.9840846702436469e-02  8.3101136197262337e-01 3.1113869167037778e-01 4.1460239110743487e-02  8.6529663326704442e-01 3.2272201721554100e-01 4.4775990746125441e-02  9.0012298489654441e-01 3.3446401986254742e-01 5.0565353979123005e-02  9.3497955630780960e-01 3.4641853885354779e-01 5.9991800008702037e-02  9.6863644083856537e-01 3.5872420930269061e-01 7.5036142706689513e-02  1.0000000139904632e+00 3.7185922197159726e-01 1.0225243701312597e-01  0.0000000000000000e+00 0.0000000000000000e+00 0.0000000000000000e+00  3.6036353901330066e-02 1.1646974754984262e-02 2.9963412725731733e-02  6.5202775009184588e-02 2.2495152856723037e-02 4.5579340988396999e-02  9.2896605728327683e-02 3.3167401740890397e-02 5.5722126287933729e-02  1.2063033794924617e-01 4.3912398879442281e-02 6.2509811385557557e-02  1.4889550234683099e-01 5.4803930127109761e-02 6.7032716377324594e-02  1.7779580286615657e-01 6.5837910514406545e-02 6.9995481552492439e-02  2.0728044671296950e-01 7.6982437223161990e-02 7.1883846811279281e-02  2.3724586025355909e-01 8.8201879083747950e-02 7.3038043326263208e-02  2.6758178694878010e-01 9.9467534258081081e-02 7.3697064350210298e-02  2.9819057088108269e-01 1.1075749387946247e-01 7.4025924496979423e-02  3.2899180183951210e-01 1.2205828906399940e-01 7.4138166207368406e-02  3.5992402971976900e-01 1.3336132547846821e-01 7.4110099630506271e-02  3.9094205608094279e-01 1.4466141747807290e-01 7.3991923324028333e-02  4.2201415480835824e-01 1.5595496207891302e-01 7.3815547999826869e-02  4.5311961941966011e-01 1.6724026376866963e-01 7.3601499677506815e-02  4.8424721317270769e-01 1.7851615929588993e-01 7.3363472471853403e-02  5.1539437289221912e-01 1.8978058881750304e-01 7.3111914881691872e-02  5.4656624275994137e-01