<?xml version="1.0"?>
<VTKFile type="UnstructuredGrid"  version="0.1"  >
<UnstructuredGrid>
<Piece  NumberOfPoints="7173" NumberOfCells="14018">
<Points>
<DataArray  type="Float64"  NumberOfComponents="3"  format="ascii">60.969811 96.118701 0  61.54276001687516 94.35534524312258 0  63.04276001687516 93.26553145111454 0  64.89686198312484 93.26553145111454 0  66.39686198312484 94.35534524312258 0  66.96981099999999 96.118701 0  66.39686198312484 97.88205675687742 0  64.89686198312484 98.97187054888546 0  63.04276001687516 98.97187054888546 0  61.54276001687516 97.88205675687742 0  34.015918 95.986634 0  34.58886701687516 94.22327824312258 0  36.08886701687516 93.13346445111453 0  37.94296898312484 93.13346445111453 0  39.44296898312484 94.22327824312258 0  40.015918 95.986634 0  39.44296898312484 97.74998975687741 0  37.94296898312484 98.83980354888546 0  36.08886701687516 98.83980354888546 0  34.58886701687516 97.74998975687741 0  23.63139159234926 96.800245948945 0  23.63139159234926 94.828118051055 0  24.6976044311915 93.1690584897601 0  26.4915150660435 92.34980695341673 0  28.4435695455066 92.63047001625918 0  29.93400436490913 93.92193913890542 0  30.489617 95.814182 0  29.93400436490913 97.70642486109459 0  28.4435695455066 98.99789398374082 0  26.4915150660435 99.27855704658327 0  24.6976044311915 98.4593055102399 0  53.730757 94.941024 0  54.35145176828141 93.03072193004947 0  55.97645176828141 91.85009032204076 0  57.98506223171857 91.85009032204076 0  59.61006223171857 93.03072193004947 0  60.230757 94.941024 0  59.61006223171857 96.85132606995053 0  57.98506223171858 98.03195767795924 0  55.97645176828142 98.03195767795924 0  54.35145176828142 96.85132606995053 0  90.43662229283875 95.12949139414559 0  90.43662229283875 93.24838060585441 0  91.645777 91.80736613959279 0  93.49830948858406 91.48071467921642 0  95.12739921857718 92.42127007336201 0  95.770777 94.188936 0  95.12739921857718 95.95660192663799 0  93.49830948858406 96.89715732078358 0  91.645777 96.57050586040721 0  67.08227573029579 95.07302665715022 0  67.08227573029579 93.15850134284977 0  67.9720000073156 91.46327336703682 0  69.54762345182985 90.37569902925834 0  71.44818972102129 90.14492850360779 0  73.23830198692463 90.82382853642537 0  74.50786710261283 92.25687131182492 0  74.966043 94.115764 0  74.50786710261283 95.97465668817507 0  73.23830198692463 97.40769946357463 0  71.44818972102129 98.08659949639221 0  69.54762345182986 97.85582897074165 0  67.9720000073156 96.76825463296318 0  9.506669292838751 94.83399639414559 0  9.506669292838751 92.95288560585441 0  10.715824 91.51187113959278 0  12.56835648858406 91.18521967921643 0  14.19744621857719 92.12577507336201 0  14.840824 93.893441 0  14.19744621857719 95.66110692663798 0  12.56835648858406 96.60166232078356 0  10.715824 96.27501086040721 0  82.336673 93.185085 0  83.06890604703364 91.41731804703363 0  84.836673 90.685085 0  86.60443995296637 91.41731804703363 0  87.336673 93.185085 0  86.60443995296637 94.95285195296637 0  84.836673 95.685085 0  83.06890604703364 94.95285195296637 0  39.76786 93.00608800000001 0  40.38855476828142 91.09578593004947 0  42.01355476828142 89.91515432204076 0  44.02216523171857 89.91515432204076 0  45.64716523171857 91.09578593004947 0  46.26786 93.00608800000001 0  45.64716523171857 94.91639006995054 0  44.02216523171858 96.09702167795925 0  42.01355476828142 96.09702167795925 0  40.38855476828142 94.91639006995054 0  47.004433 92.252353 0  47.73666604703363 90.48458604703363 0  49.504433 89.752353 0  51.27219995296637 90.48458604703363 0  52.004433 92.252353 0  51.27219995296637 94.02011995296637 0  49.504433 94.752353 0  47.73666604703363 94.02011995296637 0  16.122522 91.791096 0  16.69547101687516 90.02774024312258 0  18.19547101687516 88.93792645111454 0  20.04957298312484 88.93792645111454 0  21.54957298312484 90.02774024312258 0  22.122522 91.791096 0  21.54957298312484 93.55445175687741 0  20.04957298312484 94.64426554888546 0  18.19547101687516 94.64426554888546 0  16.69547101687516 93.55445175687741 0  30.56473859234926 90.925287948945 0  30.56473859234926 88.95316005105499 0  31.6309514311915 87.2941004897601 0  33.4248620660435 86.47484895341672 0  35.3769165455066 86.75551201625917 0  36.86735136490913 88.04698113890541 0  37.422964 89.939224 0  36.86735136490913 91.83146686109458 0  35.3769165455066 93.12293598374082 0  33.4248620660435 93.40359904658327 0  31.6309514311915 92.58434751023989 0  4.481104292838753 90.82217539414559 0  4.481104292838753 88.94106460585441 0  5.690258999999999 87.50005013959279 0  7.542791488584058 87.17339867921643 0  9.171881218577189 88.11395407336201 0  9.815259000000001 89.88162 0  9.171881218577189 91.64928592663799 0  7.542791488584059 92.58984132078356 0  5.690259000000001 92.26318986040721 0  21.806506 89.056211 0  22.42720076828142 87.14590893004947 0  24.05220076828142 85.96527732204076 0  26.06081123171858 85.96527732204075 0  27.68581123171858 87.14590893004947 0  28.306506 89.056211 0  27.68581123171858 90.96651306995054 0  26.06081123171858 92.14714467795925 0  24.05220076828142 92.14714467795926 0  22.42720076828142 90.96651306995054 0  62.10924 87.923568 0  62.68218901687516 86.16021224312259 0  64.18218901687516 85.07039845111454 0  66.03629098312484 85.07039845111454 0  67.53629098312484 86.16021224312259 0  68.10924 87.923568 0  67.53629098312484 89.68692375687742 0  66.03629098312484 90.77673754888546 0  64.18218901687516 90.77673754888546 0  62.68218901687516 89.68692375687742 0  52.69549 87.975311 0  53.31618476828142 86.06500893004947 0  54.94118476828142 84.88437732204076 0  56.94979523171857 84.88437732204076 0  58.57479523171858 86.06500893004947 0  59.19549 87.975311 0  58.57479523171858 89.88561306995054 0  56.94979523171858 91.06624467795925 0  54.94118476828142 91.06624467795925 0  53.31618476828142 89.88561306995054 0  92.00080699999999 87.002208 0  92.57375601687515 85.23885224312258 0  94.07375601687515 84.14903845111454 0  95.92785798312484 84.14903845111454 0  97.42785798312484 85.23885224312258 0  98.00080699999999 87.002208 0  97.42785798312484 88.76556375687741 0  95.92785798312484 89.85537754888546 0  94.07375601687515 89.85537754888546 0  92.57375601687515 88.76556375687741 0  10.74518359234926 87.813571948945 0  10.74518359234926 85.84144405105499 0  11.8113964311915 84.1823844897601 0  13.6053070660435 83.36313295341672 0  15.5573615455066 83.64379601625917 0  17.04779636490913 84.93526513890541 0  17.603409 86.82750799999999 0  17.04779636490913 88.71975086109458 0  15.5573615455066 90.01121998374082 0  13.6053070660435 90.29188304658327 0  11.8113964311915 89.47263151023989 0  77.730177 86.06886900000001 0  78.35087176828142 84.15856693004947 0  79.97587176828142 82.97793532204076 0  81.98448223171857 82.97793532204076 0  83.60948223171857 84.15856693004947 0  84.230177 86.06886900000001 0  83.60948223171857 87.97917106995054 0  81.98448223171857 89.15980267795925 0  79.97587176828142 89.15980267795925 0  78.35087176828142 87.97917106995054 0  70.2962146595474 85.966193 0  70.79221317770052 84.11510132977371 0  72.1473063297737 82.76000817770053 0  73.99839799999999 82.26400965954741 0  75.84948967022629 82.76000817770053 0  77.20458282229947 84.11510132977371 0  77.70058134045259 85.966193 0  77.20458282229947 87.8172846702263 0  75.84948967022629 89.17237782229948 0  73.99839799999999 89.6683763404526 0  72.1473063297737 89.17237782229948 0  70.79221317770052 87.8172846702263 0  42.555016 86.007372 0  43.28724904703363 84.23960504703363 0  45.055016 83.507372 0  46.82278295296637 84.23960504703363 0  47.555016 86.007372 0  46.82278295296637 87.77513895296637 0  45.055016 88.507372 0  43.28724904703363 87.77513895296637 0  86.41336629283876 85.9293463941456 0  86.41336629283876 84.04823560585442 0  87.62252100000001 82.6072211395928 0  89.47505348858407 82.28056967921643 0  91.10414321857719 83.22112507336202 0  91.74752100000001 84.98879100000001 0  91.10414321857719 86.75645692663799 0  89.47505348858407 87.69701232078359 0  87.62252100000001 87.37036086040722 0  57.484762 82.965649 0  58.21699504703363 81.19788204703363 0  59.984762 80.465649 0  61.75252895296637 81.19788204703363 0  62.484762 82.965649 0  61.75252895296637 84.73341595296637 0  59.984762 85.465649 0  58.21699504703363 84.73341595296637 0  47.772254 82.87006 0  48.39294876828141 80.95975793004946 0  50.01794876828141 79.77912632204075 0  52.02655923171857 79.77912632204075 0  53.65155923171858 80.95975793004946 0  54.272254 82.87006 0  53.65155923171858 84.78036206995053 0  52.02655923171858 85.96099367795924 0  50.01794876828142 85.96099367795924 0  48.39294876828141 84.78036206995053 0  28.249541 82.842979 0  28.75194573580836 80.967979 0  30.124541 79.59538373580835 0  31.999541 79.092979 0  33.874541 79.59538373580835 0  35.24713626419165 80.967979 0  35.749541 82.842979 0  35.24713626419165 84.717979 0  33.874541 86.09057426419164 0  31.999541 86.592979 0  30.124541 86.09057426419164 0  28.75194573580836 84.717979 0  64.93765 81.95997699999999 0  65.51059901687516 80.19662124312258 0  67.01059901687516 79.10680745111453 0  68.86470098312485 79.10680745111453 0  70.36470098312485 80.19662124312258 0  70.93765 81.95997699999999 0  70.36470098312485 83.72333275687741 0  68.86470098312485 84.81314654888546 0  67.01059901687516 84.81314654888546 0  65.51059901687516 83.72333275687741 0  35.72352596786838 81.95365099999999 0  36.34683128899028 80.03531447454938 0  37.97866580505609 78.84971729996052 0  39.9957241949439 78.84971729996052 0  41.62755871100972 80.03531447454938 0  42.25086403213162 81.95365099999999 0  41.62755871100972 83.87198752545061 0  39.99572419494391 85.05758470003947 0  37.9786658050561 85.05758470003947 0  36.34683128899028 83.87198752545061 0  15.7600019379197 82.90413681132043 0  15.7600019379197 80.99097518867958 0  16.79433520150893 79.38152121475592 0  18.53460822574741 78.58676515441186 0  20.42829662162105 78.85903644132866 0  21.87416770360278 80.111890
[...]
<PointData  Vectors="f_14797"> 
<DataArray  type="Float64"  Name="f_14797"  NumberOfComponents="3" format="ascii">6.0176807839415081e-01 -5.5500053275280925e-01 0.0000000000000000e+00  6.0498541272841611e-01 -5.5325531133327488e-01 0.0000000000000000e+00  6.0941396626942523e-01 -5.5017535813596297e-01 0.0000000000000000e+00  6.1232891455747729e-01 -5.4691742775174046e-01 0.0000000000000000e+00  6.1491543046997199e-01 -5.4562924910687371e-01 0.0000000000000000e+00  6.1205897985069102e-01 -5.4504340519769101e-01 0.0000000000000000e+00  6.0549951423132575e-01 -5.4687446661582972e-01 0.0000000000000000e+00  6.0235117081691536e-01 -5.5017177561184882e-01 0.0000000000000000e+00  6.0166969097723277e-01 -5.5321053903614847e-01 0.0000000000000000e+00  6.0202897202305994e-01 -5.5502437610055055e-01 0.0000000000000000e+00  3.7701849255220382e-01 -5.2316173567894286e-01 0.0000000000000000e+00  3.7271325368751862e-01 -5.2195264554534748e-01 0.0000000000000000e+00  3.6988009428390678e-01 -5.2566499609342421e-01 0.0000000000000000e+00  3.7391703798534970e-01 -5.3434887060138370e-01 0.0000000000000000e+00  3.8132407769683169e-01 -5.3936752583537950e-01 0.0000000000000000e+00  3.8424559489149362e-01 -5.4043428076237465e-01 0.0000000000000000e+00  3.8673569867708740e-01 -5.3929024317570751e-01 0.0000000000000000e+00  3.8835641182294955e-01 -5.3531281320356183e-01 0.0000000000000000e+00  3.8669924751875129e-01 -5.3004664312488936e-01 0.0000000000000000e+00  3.8206680091221484e-01 -5.2627770495626791e-01 0.0000000000000000e+00  2.6974278827312242e-01 -5.5193851554564399e-01 0.0000000000000000e+00  2.6890801726672303e-01 -5.5126409351988359e-01 0.0000000000000000e+00  2.6910369860912214e-01 -5.4918248202554332e-01 0.0000000000000000e+00  2.6982705703800586e-01 -5.4819391870787004e-01 0.0000000000000000e+00  2.7321097636497466e-01 -5.5015175644230929e-01 0.0000000000000000e+00  2.7546708402877174e-01 -5.4986249792043485e-01 0.0000000000000000e+00  2.7639141452221805e-01 -5.5036762922410998e-01 0.0000000000000000e+00  2.7581849630525884e-01 -5.5165099718073141e-01 0.0000000000000000e+00  2.7415261392933482e-01 -5.5148805079063479e-01 0.0000000000000000e+00  2.7254821029718151e-01 -5.5159531284158236e-01 0.0000000000000000e+00  2.7082004510329022e-01 -5.5173442156133468e-01 0.0000000000000000e+00  5.5471030992876591e-01 -5.3022720270188928e-01 0.0000000000000000e+00  5.5084512599531910e-01 -5.2956852691937140e-01 0.0000000000000000e+00  5.5079958739102852e-01 -5.2967933337195383e-01 0.0000000000000000e+00  5.5298563298163550e-01 -5.3490134800823086e-01 0.0000000000000000e+00  5.5798755410638379e-01 -5.4003227109747531e-01 0.0000000000000000e+00  5.6491583730456152e-01 -5.4191937082498265e-01 0.0000000000000000e+00  5.6718191637476834e-01 -5.4150599441134206e-01 0.0000000000000000e+00  5.6652612168035243e-01 -5.3832490010087330e-01 0.0000000000000000e+00  5.6431612272905085e-01 -5.3450608861657256e-01 0.0000000000000000e+00  5.6016926158389491e-01 -5.3172286264688151e-01 0.0000000000000000e+00  8.9914484384216919e-01 -5.7455990382587352e-01 0.0000000000000000e+00  8.9405088097465990e-01 -5.7343630304586612e-01 0.0000000000000000e+00  8.9192365970110032e-01 -5.7571379065909434e-01 0.0000000000000000e+00  8.9338926424994347e-01 -5.7963196266115613e-01 0.0000000000000000e+00  8.9761638789550890e-01 -5.8457519739642794e-01 0.0000000000000000e+00  9.0256520974446153e-01 -5.8818987845652682e-01 0.0000000000000000e+00  9.0660507043873928e-01 -5.8728654210947562e-01 0.0000000000000000e+00  9.0746315640509401e-01 -5.8250928411479752e-01 0.0000000000000000e+00  9.0439559798515912e-01 -5.7770223998506087e-01 0.0000000000000000e+00  6.3446857840748105e-01 -5.3605196705635549e-01 0.0000000000000000e+00  6.4463194321905715e-01 -5.3583002033306326e-01 0.0000000000000000e+00  6.5202571087888217e-01 -5.3245277470348018e-01 0.0000000000000000e+00  6.5691808351850789e-01 -5.2796476571661644e-01 0.0000000000000000e+00  6.5989471241006104e-01 -5.2118570172436940e-01 0.0000000000000000e+00  6.5889353685852858e-01 -5.1505563499344054e-01 0.0000000000000000e+00  6.5455791686807496e-01 -5.1243989052080952e-01 0.0000000000000000e+00  6.4886053824971612e-01 -5.1245710470686046e-01 0.0000000000000000e+00  6.4276727394892619e-01 -5.1485691165273939e-01 0.0000000000000000e+00  6.3734187640303652e-01 -5.1865167279405422e-01 0.0000000000000000e+00  6.3355099343323629e-01 -5.2364238906008787e-01 0.0000000000000000e+00  6.3213315396791225e-01 -5.2924496040659463e-01 0.0000000000000000e+00  6.3247260132918937e-01 -5.3357269932920959e-01 0.0000000000000000e+00  1.3618512858487428e-01 -5.9123646929936613e-01 0.0000000000000000e+00  1.3956838347995376e-01 -5.9050976886571949e-01 0.0000000000000000e+00  1.4287248081368636e-01 -5.8713196834642545e-01 0.0000000000000000e+00  1.4682941347366746e-01 -5.8109770367597302e-01 0.0000000000000000e+00  1.4794653388867732e-01 -5.7830484969371410e-01 0.0000000000000000e+00  1.4453965004047686e-01 -5.7862752145968488e-01 0.0000000000000000e+00  1.3888040628340700e-01 -5.8066552668236038e-01 0.0000000000000000e+00  1.3481041358503718e-01 -5.8447436607211400e-01 0.0000000000000000e+00  1.3384579266484226e-01 -5.8889062307426521e-01 0.0000000000000000e+00  8.1189343994873631e-01 -5.4570233096782572e-01 0.0000000000000000e+00  8.0583800529405425e-01 -5.4718354522705714e-01 0.0000000000000000e+00  8.0533421488330681e-01 -5.5466295744723026e-01 0.0000000000000000e+00  8.1016899427259548e-01 -5.6113643163801619e-01 0.0000000000000000e+00  8.1745762075346173e-01 -5.6424954064617039e-01 0.0000000000000000e+00  8.2318427049478138e-01 -5.6266626750282023e-01 0.0000000000000000e+00  8.2337579455065912e-01 -5.5615808714054282e-01 0.0000000000000000e+00  8.1865531332247832e-01 -5.4973769673703243e-01 0.0000000000000000e+00  4.1064554568287548e-01 -5.3112975446784549e-01 0.0000000000000000e+00  4.1230143363865240e-01 -5.3048452326241324e-01 0.0000000000000000e+00  4.1478491256200689e-01 -5.3016136682756920e-01 0.0000000000000000e+00  4.1720422256908474e-01 -5.2998096322845833e-01 0.0000000000000000e+00  4.2030195316760871e-01 -5.3078010393661113e-01 0.0000000000000000e+00  4.2221387266442884e-01 -5.3196480307898830e-01 0.0000000000000000e+00  4.1870938922358569e-01 -5.3280324285080016e-01 0.0000000000000000e+00  4.1637433718102934e-01 -5.3316420460728275e-01 0.0000000000000000e+00  4.1385454832056096e-01 -5.3256635807449348e-01 0.0000000000000000e+00  4.0993394886334034e-01 -5.3132234092183084e-01 0.0000000000000000e+00  4.6371845131715650e-01 -5.3010499492575180e-01 0.0000000000000000e+00  4.6691580994887666e-01 -5.2955674889721660e-01 0.0000000000000000e+00  4.6990350918916240e-01 -5.2933470631886492e-01 0.0000000000000000e+00  4.7273860419430325e-01 -5.2907485763345097e-01 0.0000000000000000e+00  4.7345887543529880e-01 -5.2950205224379354e-01 0.0000000000000000e+00  4.7301723425547898e-01 -5.3127754147259787e-01 0.0000000000000000e+00  4.7002241887238011e-01 -5.3169517148673273e-01 0.0000000000000000e+00  4.6579250193418797e-01 -5.3154661779241086e-01 0.0000000000000000e+00  2.0670401221261550e-01 -5.6274655021602304e-01 0.0000000000000000e+00  2.0778774216066936e-01 -5.6188237607622060e-01 0.0000000000000000e+00  2.1069141501307664e-01 -5.6044020820987395e-01 0.0000000000000000e+00  2.1486423254336989e-01 -5.5884100530409997e-01 0.0000000000000000e+00  2.1845937023786560e-01 -5.5788826674251202e-01 0.0000000000000000e+00  2.1583066113009480e-01 -5.5683641827856278e-01 0.0000000000000000e+00  2.1235321063045492e-01 -5.5816549691907880e-01 0.0000000000000000e+00  2.0949605009662647e-01 -5.6093582730072067e-01 0.0000000000000000e+00  2.0690739884583903e-01 -5.6304259169572191e-01 0.0000000000000000e+00  2.0546542105608778e-01 -5.6379387084535049e-01 0.0000000000000000e+00  3.2625777940297912e-01 -4.9042746711517060e-01 0.0000000000000000e+00  3.2273974497939578e-01 -4.8950121571501792e-01 0.0000000000000000e+00  3.2288335256283268e-01 -4.8906805427540795e-01 0.0000000000000000e+00  3.2303166988974147e-01 -4.8915422232628741e-01 0.0000000000000000e+00  3.2446631692168365e-01 -4.9518070733871705e-01 0.0000000000000000e+00  3.2875520066338398e-01 -4.9952713514680314e-01 0.0000000000000000e+00  3.3379353331306155e-01 -5.0224731259779043e-01 0.0000000000000000e+00  3.3759764724944519e-01 -5.0345425014038514e-01 0.0000000000000000e+00  3.3974524582035237e-01 -5.0179243061788859e-01 0.0000000000000000e+00  3.3693787679765336e-01 -4.9517574613913351e-01 0.0000000000000000e+00  3.3155621089130066e-01 -4.9170444379668388e-01 0.0000000000000000e+00  9.5480859657096212e-02 -5.8598236709436091e-01 0.0000000000000000e+00  9.9214970283548115e-02 -5.8451934743184730e-01 0.0000000000000000e+00  1.0364383577369922e-01 -5.8091120548965913e-01 0.0000000000000000e+00  1.0718875770750980e-01 -5.7614423507134294e-01 0.0000000000000000e+00  1.0839119241667385e-01 -5.7297526067981641e-01 0.0000000000000000e+00  1.0488774817345180e-01 -5.7308935574760356e-01 0.0000000000000000e+00  1.0120052284639938e-01 -5.7464746635810571e-01 0.0000000000000000e+00  9.6810103497009095e-02 -5.7876778694839104e-01 0.0000000000000000e+00  9.4246309334389711e-02 -5.8353254532712229e-01 0.0000000000000000e+00  2.4788092052741426e-01 -5.4281484827698723e-01 0.0000000000000000e+00  2.5445520174793573e-01 -5.4050579075384009e-01 0.0000000000000000e+00  2.5879960505162714e-01 -5.3653216296072059e-01 0.0000000000000000e+00  2.6145366839162187e-01 -5.3178555822630169e-01 0.0000000000000000e+00  2.6072197300517763e-01 -5.2771956190326608e-01 0.0000000000000000e+00  2.5735098293464587e-01 -5.2674839192366996e-01 0.0000000000000000e+00  2.5165084673819793e-01 -5.3049892563993795e-01 0.0000000000000000e+00  2.4786362093899514e-01 -5.3608698777427721e-01 0.0000000000000000e+00  2.4457167834385707e-01 -5.3787499017784313e-01 0.0000000000000000e+00  2.4205687438894760e-01 -5.4105780952371552e-01 0.0000000000000000e+00  6.2128247930584513e-01 -5.1177987267635683e-01 0.0000000000000000e+00  6.2621299313741252e-01 -5.0992492027450576e-01 0.0000000000000000e+00  6.3098852118000137e-01 -5.0654982050122244e-01 0.0000000000000000e+00  6.3399768111685151e-01 -5.0038637389508911e-01 0.0000000000000000e+00  6.3322452103060112e-01 -4.9779670462837361e-01 0.0000000000000000e+00  6.2951599578931705e-01 -4.9917670293619237e-01 0.0000000000000000e+00  6.2416502878234714e-01 -5.0160227564399895e-01 0.0000000000000000e+00  6.2015472452664244e-01 -5.0547264069068187e-01 0.0000000000000000e+00  6.1780734320267983e-01 -5.0956292043964224e-01 0.0000000000000000e+00  6.1821821365268870e-01 -5.1192340368305500e-01 0.0000000000000000e+00  5.2894683982943325e-01 -5.0478620370353433e-01 0.0000000000000000e+00  5.2621970628764703e-01 -5.0480510673645196e-01 0.0000000000000000e+00  5.2677227401614457e-01 -5.0789637967736878e-01 0.0000000000000000e+00  5.3117745041455922e-01 -5.1025910680463238e-01 0.0000000000000000e+00  5.3391352456782593e-01 -5.1096598518871905e-01 0.0000000000000000e+00  5.3659380034288084e-01 -5.1346575831573893e-01 0.0000000000000000e+00  5.3782341240187748e-01 -5.1481280824372644e-01 0.0000000000000000e+00  5.3767125664005122e-01 -5.1491227440848675e-01 0.0000000000000000e+00  5.3530090655810603e-01 -5.0985696004281778e-01 0.0000000000000000e+00  5.3146589422929147e-01 -5.0597168612183319e-01 0.0000000000000000e+00  9.0507674475257871e-01 -5.3487148618889913e-01 0.0000000000000000e+00  8.9920953498150413e-01 -5.3535912108729788e-01 0.0000000000000000e+00  9.0028693720861419e-01 -5.3680713137210723e-01 0.0000000000000000e+00  9.0354140427242369e-01 -5.4428587125248618e-01 0.0000000000000000e+00  9.1035031846724623e-01 -5.5212453439336195e-01 0.0000000000000000e+00  9.1735736408615898e-01 -5.5538526320063175e-01 0.0000000000000000e+00  9.2204663134146969e-01 -5.5416884059784122e-01 0.0000000000000000e+00  9.2304698950973829e-01 -5.4966193069395564e-01 0.0000000000000000e+00  9.2052374013251537e-01 -5.4413876614422507e-01 0.0000000000000000e+00  9.1450510770016979e-01 -5.3779213975767115e-01 0.0000000000000000e+00  1.6106969235071042e-01 -5.4882261611025718e-01 0.0000000000000000e+00  1.6365480825892600e-01 -5.4826434348823494e-01 0.0000000000000000e+00  1.6483357534224519e-01 -5.4730623160328518e-01 0.0000000000000000e+00  1.6909043613673569e-01 -5.4511325205841121e-01 0.0000000000000000e+00  1.7294930589202992e-01 -5.4139360971088479e-01 0.0000000000000000e+00  1.7167808145005473e-01 -5.3698723489529498e-01 0.0000000000000000e+00  1.6866031969420284e-01 -5.3884556489458735e-01 0.0000000000000000e+00  1.6833059457702429e-01 -5.4094009559503919e-01 0.0000000000000000e+00  1.6636062782926125e-01 -5.4283260292336988e-01 0.0000000000000000e+00  1.6255490833176545e-01 -5.4719682804112701e-01 0.0000000000000000e+00  1.5992261039565386e-01 -5.4949788184208093e-01 0.0000000000000000e+00  7.3337561714645083e-01 -4.9739844743384970e-01 0.0000000000000000e+00  7.4334553061740616e-01 -4.9837123510665199e-01 0.0000000000000000e+00  7.4994640410885183e-01 -4.9555496260771464e-01 0.0000000000000000e+00  7.5441303666839132e-01 -4.8931066166221193e-01 0.0000000000000000e+00  7.5308807978049463e-01 -4.8890192265120075e-01 0.0000000000000000e+00  7.5149588623105523e-01 -4.9178090341616770e-01 0.0000000000000000e+00  7.4722582151414763e-01 -4.9437003972657889e-01 0.0000000000000000e+00  7.4364754236765807e-01 -4.9607043597178602e-01 0.0000000000000000e+00  7.4115179286613964e-01 -4.9710517181127534e-01 0.0000000000000000e+00  7.3906777935893497e-01 -4.9723528692977692e-01 0.0000000000000000e+00  7.0817099997929667e-01 -4.9258597151986411e-01 0.0000000000000000e+00  7.0775901469595703e-01 -4.9188154637092568e-01 0.0000000000000000e+00  7.1008731065730579e-01 -4.9081275276992614e-01 0.0000000000000000e+00  7.1274380089500522e-01 -4.8903586452868852e-01 0.0000000000000000e+00  7.1525783938893850e-01 -4.9035428190366731e-01 0.0000000000000000e+00  7.1906535739373478e-01 -4.9269138918284128e-01 0.0000000000000000e+00  7.2614514288131959e-01 -4.9300680987759021e-01 0.0000000000000000e+00  7.1835570735917798e-01 -4.9153721264029160e-01 0.0000000000000000e+00  7.1353104561764935e-01 -4.9265589626766021e-01 0.0000000000000000e+00  7.1062499413664504e-01 -4.9438183175446493e-01 0.0000000000000000e+00  7.0924957803430688e-01 -4.9561224842620927e-01 0.0000000000000000e+00  7.0834031439711920e-01 -4.9452609535580733e-01 0.0000000000000000e+00  4.3105425711553824e-01 -5.1172675666310996e-01 0.0000000000000000e+00  4.2875058434114088e-01 -5.1174849179981508e-01 0.0000000000000000e+00  4.3184760641687270e-01 -5.1397756613449641e-01 0.0000000000000000e+00  4.3647315410952292e-01 -5.1480019383059572e-01 0.0000000000000000e+00  4.3682780335958632e-01 -5.1527173084594124e-01 0.0000000000000000e+00  4.3644351385463609e-01 -5.1537116976794251e-01 0.0000000000000000e+00  4.3568812569865994e-01 -5.1476588715204674e-01 0.0000000000000000e+00  4.3351300055419406e-01 -5.1372659891336958e-01 0.0000000000000000e+00  8.4968369056869286e-01 -5.0602072535840059e-01 0.0000000000000000e+00  8.4269049884050207e-01 -5.0417036927337278e-01 0.0000000000000000e+00  8.3925894784076649e-01 -5.0895769350503806e-01 0.0000000000000000e+00  8.4220138853247062e-01 -5.1705723560448769e-01 0.0000000000000000e+00  8.4838263901713640e-01 -5.2294772481287710e-01 0.0000000000000000e+00  8.5702507504308900e-01 -5.2494372643484555e-01 0.0000000000000000e+00  8.6342356276527576e-01 -5.2377656945279494e-01 0.0000000000000000e+00  8.6227375478324697e-01 -5.1845252891644522e-01 0.0000000000000000e+00  8.5760885096445905e-01 -5.1171602525240367e-01 0.0000000000000000e+00  5.8031004985721713e-01 -4.8080550452632659e-01 0.0000000000000000e+00  5.8692298079582850e-01 -4.7705412496164012e-01 0.0000000000000000e+00  5.9094652620405541e-01 -4.7078908662004126e-01 0.0000000000000000e+00  5.9147975755494120e-01 -4.6488264786667438e-01 0.0000000000000000e+00  5.8655425305469477e-01 -4.6504273653944794e-01 0.0000000000000000e+00  5.8007441640825275e-01 -4.6760366369356271e-01 0.0000000000000000e+00  5.7452739136943531e-01 -4.7284716694667372e-01 0.0000000000000000e+00  5.7419140776100386e-01 -4.8014293233358651e-01 0.0000000000000000e+00  4.8589389173620068e-01 -4.8936749471542684e-01 0.0000000000000000e+00  4.9130955942654941e-01 -4.8751471558360665e-01 0.0000000000000000e+00  4.9633626331602537e-01 -4.8375350940364870e-01 0.0000000000000000e+00  4.9918664500135057e-01 -4.7859953774693342e-01 0.0000000000000000e+00  4.9734763912797852e-01 -4.7475868033789020e-01 0.0000000000000000e+00  4.9337720750563685e-01 -4.7554906811455544e-01 0.0000000000000000e+00  4.8977706125070702e-01 -4.7853157506644528e-01 0.0000000000000000e+00  4.8627239053510618e-01 -4.8080205663212161e-01 0.0000000000000000e+00  4.8241320995905795e-01 -4.8471567428825185e-01 0.0000000000000000e+00  4.8153272412761183e-01 -4.8814316215131248e-01 0.0000000000000000e+00  3.2076926850237464e-01 -4.8322977225432856e-01 0.0000000000000000e+00  3.2300414130999144e-01 -4.8168020881528917e-01 0.0000000000000000e+00  3.2521458043208257e-01 -4.7850274827866307e-01 0.0000000000000000e+00  3.2691379076259314e-01 -4.7580012601468885e-01 0.0000000000000000e+00  3.2903717447334896e-01 -4.7593091292974443e-01 0.0000000000000000e+00  3.3198712106997985e-01 -4.7500005390324890e-01 0.0000000000000000e+00  3.3252885544645411e-01 -4.7331511119526770e-01 0.0000000000000000e+00  3.2521061708327531e-01 -4.7608344927660490e-01 0.0000000000000000e+00  3.2107105373428341e-01 -4.8115944420866796e-01 0.0000000000000000e+00  3.2024962505459381e-01 -4.8229134806433371e-01 0.0000000000000000e+00  3.1885133612961819e-01 -4.8157163570642936e-01 0.0000000000000000e+00  3.1912925046566992e-01 -4.8303824433966613e-01 0.0000000000000000e+00  6.6325556029363975e-01 -4.6785711123723439e-01 0.0000000000000000e+00  6.6284915526471699e-01 -4.6704808448068469e-01 0.0000000000000000e+00  6.6386441698674103e-01 -4.6607026848333305e-01 0.0000000000000000e+00  6.6634370019202149e-01 -4.6592685276962342e-01 0.0000000000000000e+00  6.6884296235801899e-01 -4.6892119981095370e-01 0.0000000000000000e+00  6.7111900081463194e-01 -4.7015111961769723e-01 0.0000000000000000e+00  6.7334995331748049e-01 -4.6972082354893196e-01 0.0000000000000000e+00  6.7054137850363249e-01 -4.6891847402073389e-01 0.0000000000000000e+00  6.6689035913031658e-01 -4.7093399899497362e-01 0.0000000000000000e+00  6.6498360242896026e-01 -4.7042138211323931e-01 0.0000000000000000e+00  3.4388864928475088e-01 -4.6246604430724558e-01 0.0000000000000000e+00  3.4837820822600529e-01 -4.6052740409757481e-01 0.0000000000000000e+00  3.4976665125360090e-01 -4.5783332307771463e-01 0.0000000000000000e+00  3.5169818747576820e-01 -4.5764050494497721e-01 0.0000000000000000e+00  3.5379049138890922e-01 -4.6007595364753134e-01 0.0000000000000000e+00  3.5560535915031821e-01 -4.6211374961720098e-01 0.0000000000000000e+00  3.5695497894831674e-01 -4.6268332548228491e-01 0.0000000000000000e+00  3.5501649915528927e-01 -4.6199745050539770e-01 0.0000000000000000e+00  3.5176563954387541e-01 -4.6161533604354804e-01 0.0000000000000000e+00  3.4721989633826944e-01 -4.6143987012448906e-01 0.0000000000000000e+00  1.9494039416899409e-01 -5.2938995402604372e-01 0.0000000000000000e+00  2.0456948435520411e-01 -5.2770661151093368e-01 0.0000000000000000e+00  2.1300637269706865e-01 -5.2177928274088348e-01 0.0000000000000000e+00  2.1937116735064227e-01 -5.1284574289240237e-01 0.0000000000000000e+00  2.2066683103643805e-01 -5.0358556480032290e-01 0.0000000000000000e+00  2.1553332872125336e-01 -4.9676774081133718e-01 0.0000000000000000e+00  2.0650076145381432e-01 -4.9507104298439747e-01 0.0000000000000000e+00  1.9704886696310650e-01 -4.9870819769358138e-01 0.0000000000000000e+00  1.8966314389763830e-01 -5.0615162857325668e-01 0.0000000000000000e+00  1.8549880495858731e-01 -5.1580368485951100e-01 0.0000000000000000e+00  1.8650176713566352e-01 -5.2593885439280030e-01 0.0000000000000000e+00  1.1332449549756604e-01 -5.1881306499442614e-01 0.0000000000000000e+00  1.1050