<?xml version="1.0"?>
<VTKFile type="UnstructuredGrid"  version="0.1"  >
<UnstructuredGrid>
<Piece  NumberOfPoints="759" NumberOfCells="1350">
<Points>
<DataArray  type="Float64"  NumberOfComponents="3"  format="ascii">0.534923 0.326073 0  0.510642 0.314196 0  0.466125 0.293082 0  0.436448 0.281205 0  0.409468 0.275927 0  0.368998 0.270648 0  0.35281 0.275927 0  0.381139 0.302319 0  0.405421 0.326073 0  0.410817 0.33531 0  0.408119 0.349826 0  0.400025 0.357744 0  0.375743 0.368301 0  0.329878 0.392055 0  0.297502 0.432963 0  0.282663 0.476511 0  0.285361 0.524018 0  0.298851 0.572845 0  0.317737 0.6045160000000001 0  0.337972 0.6361869999999999 0  0.360904 0.674457 0  0.368998 0.69953 0  0.359555 0.7219640000000001 0  0.360904 0.757594 0  0.370347 0.766831 0  0.381139 0.762872 0  0.390582 0.741758 0  0.404072 0.720644 0  0.424307 0.707448 0  0.447239 0.702169 0  0.480964 0.704808 0  0.479615 0.6889729999999999 0  0.468823 0.675776 0  0.447239 0.6691780000000001 0  0.428354 0.6691780000000001 0  0.410817 0.6639 0  0.404072 0.653343 0  0.395978 0.628269 0  0.387884 0.59132 0  0.389233 0.576804 0  0.397327 0.557009 0  0.410817 0.547772 0  0.424307 0.546452 0  0.437797 0.55305 0  0.44589 0.5662469999999999 0  0.441843 0.582082 0  0.439145 0.5979179999999999 0  0.449937 0.609795 0  0.468823 0.603196 0  0.479615 0.59 0  0.489058 0.570205 0  0.494454 0.546452 0  0.505246 0.522699 0  0.522783 0.509502 0  0.55246 0.494986 0  0.586185 0.484429 0  0.615863 0.48047 0  0.64554 0.473872 0  0.6671240000000001 0.461995 0  0.683312 0.451438 0  0.696802 0.435603 0  0.703547 0.417128 0  0.7116400000000001 0.393374 0  0.7183850000000001 0.37226 0  0.7251300000000001 0.364342 0  0.739969 0.353785 0  0.7453650000000001 0.344548 0  0.7453650000000001 0.327393 0  0.737271 0.318155 0  0.7183850000000001 0.316835 0  0.7008490000000001 0.319475 0  0.677916 0.318155 0  0.650936 0.316835 0  0.610467 0.318155 0  0.57944 0.324753 0  0.559205 0.328712 0  0.5389699999999999 0.326073 0  1 1 0  1 0 0  0 0 0  0 1 0  0.532238 0.32476 0  0.528748 0.323052 0  0.52421 0.320833 0  0.518311 0.317947 0  0.503447 0.310783 0  0.494093 0.306347 0  0.481933 0.30058 0  0.452151 0.28749 0  0.392327 0.273691 0  0.379141 0.271971 0  0.360474 0.283066 0  0.369797 0.291752 0  0.391424 0.31238 0  0.399335 0.32012 0  0.40958 0.341964 0  0.393939 0.36039 0  0.386028 0.36383 0  0.364248 0.374254 0  0.349304 0.381994 0  0.315801 0.409841 0  0.292986 0.551616 0  0.350934 0.657818 0  0.360127 0.737055 0  0.360566 0.748664 0  0.385245 0.753692 0  0.396447 0.732578 0  0.466301 0.703661 0  0.459439 0.672908 0  0.418442 0.666195 0  0.400553 0.642441 0  0.39255 0.612619 0  0.389913 0.60058 0  0.392752 0.568197 0  0.444131 0.573132 0  0.458149 0.606926 0  0.5005540000000001 0.533026 0  0.571522 0.489019 0  0.632637 0.476741 0  0.689177 0.444553 0  0.708121 0.403702 0  0.715453 0.38144 0  0.732406 0.359166 0  0.7453650000000001 0.337089 0  0.72906 0.317581 0  0.629879 0.317522 0  0.59293 0.321884 0  0.568003 0.326991 0  0.55202 0.327775 0  0.546493 0.327054 0  0.542241 0.326499 0  1 0.9 0  1 0.8 0  1 0.7 0  1 0.6 0  1 0.5 0  1 0.4 0  1 0.3 0  1 0.2 0  1 0.1 0  0.9 0 0  0.8 0 0  0.7 0 0  0.6 0 0  0.5 0 0  0.4 0 0  0.3 0 0  0.2 0 0  0.1 0 0  0.1 1 0  0.2 1 0  0.3 1 0  0.4 1 0  0.5 1 0  0.6 1 0  0.7 1 0  0.8 1 0  0.9 1 0  0 0.1 0  0 0.2 0  0 0.3 0  0 0.4 0  0 0.5 0  0 0.6 0  0 0.7 0  0 0.8 0  0 0.9 0  0.535686 0.5031910000000001 0  0.753987 0.733359 0  0.167145 0.741436 0  0.173378 0.257204 0  0.733497 0.159862 0  0.554096 0.15788 0  0.849187 0.479053 0  0.488793 0.838452 0  0.138507 0.5592 0  0.30686 0.154944 0  0.348904 0.890523 0  0.058006 0.065099 0  0.06984899999999999 0.937917 0  0.93633 0.939704 0  0.934625 0.053613 0  0.343397 0.333452 0  0.473272 0.639943 0  0.433266 0.638072 0  0.415174 0.58269 0  0.533435 0.545042 0  0.390848 0.340652 0  0.53655 0.320242 0  0.127966 0.393775 0  0.83861 0.850455 0  0.635242 0.8551299999999999 0  0.852158 0.633441 0  0.653427 0.626848 0  0.861226 0.24292 0  0.166128 0.12976 0  0.216875 0.8698709999999999 0  0.458305 0.11179 0  0.84446 0.101633 0  0.202024 0.642528 0  0.644825 0.115855 0  0.671342 0.218358 0  0.251354 0.286186 0  0.262388 0.75153 0  0.063044 0.751571 0  0.068189 0.242962 0  0.435781 0.9053949999999999 0  0.934144 0.451133 0  0.568393 0.237622 0  0.814984 0.395506 0  0.752951 0.517227 0  0.456254 0.780699 0  0.073352 0.531116 0  0.337731 0.206071 0  0.363213 0.960371 0  0.330742 0.363592 0  0.516613 0.55705 0  0.369057 0.332992 0  0.500926 0.617309 0  0.498004 0.665534 0  0.412142 0.61178 0  0.454233 0.6366039999999999 0  0.422782 0.567496 0  0.541193 0.5214800000000001 0  0.439761 0.65557 0  0.5163 0.533672 0  0.414775 0.64562 0  0.40073 0.576135 0  0.430362 0.5880339999999999 0  0.385432 0.351492 0  0.400298 0.335397 0  0.398325 0.348194 0  0.528702 0.314885 0  0.540814 0.322334 0  0.534477 0.322953 0  0.619095 0.743583 0  0.885162 0.737972 0  0.08076 0.668849 0  0.90734 0.36634 0  0.09468699999999999 0.868937 0  0.759838 0.912152 0  0.901518 0.540898 0  0.747285 0.607479 0  0.229182 0.071641 0  0.06915399999999999 0.450091 0  0.244775 0.203309 0  0.076534 0.331755 0  0.897847 0.167826 0  0.578909 0.911415 0  0.07713299999999999 0.146341 0  0.477215 0.203448 0  0.922631 0.869341 0  0.517415 0.074785 0  0.297026 0.827793 0  0.7832710000000001 0.246505 0  0.74519 0.061079 0  0.36033 0.069068 0  0.210313 0.475228 0  0.859426 0.928758 0  0.5745479999999999 0.609182 0  0.243069 0.383398 0  0.283099 0.934598 0  0.417416 0.843141 0  0.643942 0.553164 0  0.112687 0.079336 0  0.281357 0.658386 0  0.765043 0.436177 0  0.611361 0.198486 0  0.234496 0.58911 0  0.206479 0.702638 0  0.679608 0.155818 0  0.62682 0.259978 0  0.690538 0.264164 0  0.448938 0.956308 0  0.808154 0.328403 0  0.379583 0.91913 0  0.308083 0.297769 0  0.312358 0.730249 0  0.563101 0.278576 0  0.435597 0.746198 0  0.385475 0.225229 0  0.572248 0.518034 0  0.357864 0.35422 0  0.497647 0.641694 0  0.458101 0.655768 0  0.360474 0.310727 0  0.467038 0.620139 0  0.47798 0.659909 0  0.41102 0.628072 0  0.48324 0.609015 0  0.427544 0.617941 0  0.388633 0.328253 0  0.405336 0.599404 0  0.408351 0.565178 0  0.42395 0.600985 0  0.431562 0.576523 0  0.424905 0.6551979999999999 0  0.398064 0.58782 0  0.427739 0.557934 0  0.5192909999999999 0.303443 0  0.53142 0.320293 0  0.5449000000000001 0.323642 0  0.537166 0.323513 0  0.153974 0.920841 0  0.9181859999999999 0.67343 0  0.759946 0.820588 0  0.5375259999999999 0.783091 0  0.816532 0.545843 0  0.813991 0.178083 0  0.836774 0.702023 0  0.149815 0.318856 0  0.662287 0.923338 0  0.680146 0.791192 0  0.708961 0.663172 0  0.9372779999999999 0.287318 0  0.574622 0.6881660000000001 0  0.5894740000000001 0.076262 0  0.502822 0.926683 0  0.222269 0.811068 0  0.380457 0.164786 0  0.15321 0.684154 0  0.458063 0.051413 0  0.161702 0.056026 0  0.199351 0.198818 0  0.298946 0.09553200000000001 0  0.902465 0.795949 0  0.121139 0.791477 0  0.906269 0.112287 0  0.056109 0.822332 0  0.512172 0.13237 0  0.940964 0.741805 0  0.888887 0.408777 0  0.354543 0.825964 0  0.808736 0.068638 0  0.068507 0.394071 0  0.719105 0.563843 0  0.247287 0.149664 0  0.293062 0.237128 0  0.240524 0.434997 0  0.141255 0.623289 0  0.945202 0.160621 0  0.502914 0.247629 0  0.144669 0.480811 0  0.665025 0.060817 0  0.728047 0.224344 0  0.861995 0.313312 0  0.200068 0.534235 0  0.253262 0.965623 0  0.893804 0.49307 0  0.604391 0.572456 0  0.947088 0.345347 0  0.439372 0.227307 0  0.629847 0.159823 0  0.273405 0.880181 0  0.302744 0.776823 0  0.781502 0.295365 0  0.275342 0.349602 0  0.7283849999999999 0.472798 0  0.229136 0.246478 0  0.807794 0.480346 0  0.709476 0.112786 0  0.275506 0.694991 0  0.771674 0.394419 0  0.449715 0.861802 0  0.419159 0.799696 0  0.674851 0.503139 0  0.280443 0.61016 0  0.572443 0.192538 0  0.393113 0.87525 0  0.405555 0.948428 0  0.330942 0.934103 0  0.540509 0.597101 0  0.312763 0.6689310000000001 0  0.254368 0.540179 0  0.595265 0.25915 0  0.606679 0.234099 0  0.657131 0.279138 0  0.722458 0.279478 0  0.333 0.308056 0  0.351529 0.246142 0  0.455714 0.7257940000000001 0  0.585239 0.295143 0  0.340062 0.72492 0  0.545593 0.293773 0  0.555449 0.545426 0  0.414311 0.737314 0  0.590854 0.502323 0  0.350507 0.368444 0  0.484423 0.625665 0  0.483899 0.674542 0  0.378137 0.317274 0  0.446416 0.646404 0  0.373532 0.347654 0  0.446876 0.619769 0  0.466106 0.666068 0  0.437545 0.609254 0  0.434988 0.565726 0  0.41462 0.656829 0  0.418803 0.556961 0  0.398425 0.327446 0  0.517803 0.310421 0  0.549516 0.322918 0  0.57701 0.842889 0  0.8291269999999999 0.773906 0  0.643235 0.684732 0  0.134281 0.207734 0  0.865997 0.055966 0  0.680959 0.723345 0  0.165229 0.8415550000000001 0  0.54558 0.959672 0  0.783726 0.656439 0  0.913315 0.595533 0  0.699439 0.860667 0  0.785839 0.125076 0  0.551673 0.037713 0  0.9200970000000001 0.223214 0  0.206406 0.299726 0  0.087064 0.596401 0  0.935644 0.394252 0  0.964557 0.252582 0  0.230124 0.928346 0  0.120579 0.271764 0  0.8572149999999999 0.524082 0  0.7670979999999999 0.5551469999999999 0  0.936094 0.507131 0  0.804064 0.59585 0  0.700565 0.608273 0  0.429773 0.174231 0  0.117746 0.727333 0  0.5389620000000001 0.730231 0  0.862761 0.359173 0  0.821444 0.284046 0  0.193552 0.35818 0  0.234923 0.505555 0  0.193209 0.421217 0  0.220144 0.755896 0  0.594015 0.131642 0  0.283813 0.195855 0  0.517519 0.213961 0  0.553509 0.639116 0  0.280391 0.378018 0  0.852183 0.436817 0  0.746983 0.197173 0  0.821806 0.221318 0  0.449853 0.828453 0  0.883758 0.453926 0  0.183484 0.589542 0  0.348384 0.129314 0  0.255254 0.838525 0  0.504849 0.798516 0  0.320344 0.863432 0  0.611669 0.525425 0  0.265864 0.804962 0  0.72056 0.521442 0  0.613372 0.6101220000000001 0  0.481262 0.881068 0  0.655778 0.191988 0  0.701921 0.196918 0  0.5658260000000001 0.5731810000000001 0  0.46914 0.240927 0  0.343219 0.173284 0  0.888786 0.278502 0  0.244113 0.6750930000000001 0  0.739546 0.417914 0  0.784023 0.355942 0  0.326805 0.265549 0  0.248616 0.63
[...]
<PointData  Scalars="f_19-1"> 
<DataArray  type="Float64"  Name="f_19-1"  format="ascii">5.7902955499048836e+01  6.1460329184550133e+01  5.7909736098904666e+01  5.0143925052872504e+01  4.3705434357936163e+01  4.0009214189463272e+01  -1.4037020387591209e+01  -1.1891669649144628e+01  -8.7846203591519796e+00  -8.9445708397336077e+00  -9.0330192842450234e+00  -9.1165925054943990e+00  -7.9700611370404193e+00  -1.5525212171059093e+00  -2.7733533494013680e+00  -3.8922981898323874e+00  -3.6467577960725919e+00  -2.8280583803967314e+00  -2.0680144270493868e+00  -2.7847536263899233e+00  -6.5895159305672379e+00  -1.0649178447883838e+01  -1.8908654445909463e+01  -4.6515793680900174e+01  2.9206365459070192e+01  1.3455294944955864e+02  1.0675034826890987e+02  9.2093569726323040e+01  8.2796067941940336e+01  7.4935620062899261e+01  9.9016374543520328e+01  1.3859268498130024e+02  1.1809566190530613e+02  1.1264546761717330e+02  1.1221157511267772e+02  1.1232910671087323e+02  1.1235880078726814e+02  1.1230827268473296e+02  1.1235860826254844e+02  1.1236421955070927e+02  1.1236649189145265e+02  1.1236742642535864e+02  1.1236710872195800e+02  1.1236753519208200e+02  1.1236775084618331e+02  1.1235643312179366e+02  1.1243703908873056e+02  1.1262178025552761e+02  1.0858493718154563e+02  1.0716182328532149e+02  1.0722088728822442e+02  1.0645471927558354e+02  1.0520265782673960e+02  1.0422125794641100e+02  1.0302398713120965e+02  1.0137956258295182e+02  1.0039060858633002e+02  1.0303942271164077e+02  1.0630498006806346e+02  1.0931985459290348e+02  1.1603798214753428e+02  1.1751853378645259e+02  1.1748627078484924e+02  1.1885383224324603e+02  1.1969961663178523e+02  1.2813054717577620e+02  1.3012472978432280e+02  1.1986810268381500e+02  8.0834809886363900e+01  5.6878412281883975e+01  6.1613170922168521e+01  6.6093688107568994e+01  6.2522816594873049e+01  5.5965008951748366e+01  5.2360562726437202e+01  5.4495179562847049e+01  5.6059407319104473e+01  1.0330900753874903e+02  8.4443929860549275e+01  0.0000000000000000e+00  0.0000000000000000e+00  6.0922955328855792e+01  6.1323954318421535e+01  6.1587965692390007e+01  6.1725527751105595e+01  6.1158870363715792e+01  6.0557893384643187e+01  6.0597623191002199e+01  5.6754411842546112e+01  4.1371588570591825e+01  4.7178799441005673e+01  -4.6686411494188796e+01  -1.4548717205812014e+01  -9.1886857296236766e+00  -8.8479056437446086e+00  -8.9818244772799076e+00  -9.1579865478111682e+00  -8.8646832629002237e+00  -6.2172288494304846e+00  -3.7331241182899983e+00  -1.6183437887806502e+00  -3.6281481878753961e+00  -4.1993358001518679e+00  -2.3608617887983534e+01  -4.4802096988309358e+01  1.3080476635352088e+02  1.0059812470653874e+02  5.1596900095850636e+01  1.1436219645344808e+02  1.1233696158019468e+02  1.1231848245112285e+02  1.1233257195445333e+02  1.1235336315948830e+02  1.1236615241977702e+02  1.1236895613864715e+02  1.1090887851072442e+02  1.0574285816725875e+02  1.0241292460577010e+02  1.0042207299480374e+02  1.1266656261634706e+02  1.1707914791835520e+02  1.1821396115113251e+02  1.2231217423892609e+02  1.3243587425424300e+02  5.1607951918767171e+01  5.9805282359755722e+01  5.1285350485627049e+01  5.2419890400279378e+01  5.7427206058472251e+01  5.6760026442273585e+01  5.7163175695587000e+01  1.0241102816133404e+02  1.0301014670014581e+02  1.0574476749006124e+02  1.0975765782033689e+02  1.1254865983921415e+02  1.1004767624626552e+02  9.8514597100398589e+01  8.5918834023832588e+01  8.1962291257831694e+01  8.6831260587504758e+01  8.3363032370897812e+01  7.3258257582404809e+01  6.1369221135142553e+01  4.8548328408806597e+01  3.2336341262569910e+01  1.5874306253837830e+01  4.8367531779200874e+00  2.4188112901920089e+00  1.5020199560433132e+00  5.8496976584948230e+00  2.3970241731483302e+01  5.5250651531390034e+01  8.2014830210256576e+01  9.5737538994985115e+01  1.0191491246345355e+02  1.0407546819769250e+02  1.0410103110275244e+02  0.0000000000000000e+00  0.0000000000000000e+00  0.0000000000000000e+00  0.0000000000000000e+00  0.0000000000000000e+00  0.0000000000000000e+00  0.0000000000000000e+00  0.0000000000000000e+00  0.0000000000000000e+00  1.0373087274364106e+02  1.0233790189382076e+02  2.6511555609955724e+00  2.7699322622995268e+00  7.4863552217061695e+01  5.5145831857937729e+01  1.0799992059187133e+02  7.8901583837437784e+01  5.6466156796828793e-01  1.7653568653134553e+01  3.9626190972855667e+01  2.0342683698245074e+00  1.1813741003330089e+00  1.0323405222655452e+02  8.4525656263418441e+01  -7.8585810433637189e+00  1.1203663037842936e+02  1.1235969750379628e+02  1.1236778895811551e+02  1.0512485621773982e+02  -8.9562453762328911e+00  5.8396207923671660e+01  8.4492066416705869e-01  1.0252933285828416e+02  9.4930531514808436e+01  1.0594458155225581e+02  1.0368553328682366e+02  9.0245036229773902e+01  5.5858184438318350e+00  1.1847544033157600e+01  4.1919179603958334e+01  8.2738004304355059e+01  2.1695331918159899e-01  6.5278376295192473e+01  6.7505487269937404e+01  1.9515195781587751e+00  4.0238556060939974e+00  -1.6392940496473043e+00  -1.0496575799593553e+00  6.4065026134612850e+01  1.0842895811724520e+02  5.7396283446403622e+01  1.0798865211971460e+02  1.0759006400690100e+02  8.1191004373822196e+01  4.1031783964765260e+00  1.9615475061050866e+01  4.3842597410709104e+01  -4.2956411185387049e+00  1.0596695573366340e+02  -9.0477903288292918e+00  1.0869189020468953e+02  1.1363569115375499e+02  1.1234619825440230e+02  1.1224516087745229e+02  1.1236713256442492e+02  1.0420235259209053e+02  1.1255112676378589e+02  1.0526156723617976e+02  1.1235749869063042e+02  1.1236321705233014e+02  1.1237423698726538e+02  -8.7582096384138985e+00  -8.9380074645698340e+00  -9.0285101743207008e+00  5.9843915117510626e+01  5.7397287772929495e+01  5.9158601317594716e+01  9.8465012003822977e+01  1.0418533881576808e+02  1.7850528060191471e+00  1.0340926051154007e+02  5.3042803943220795e-01  1.0127523148627260e+02  1.0832249019887448e+02  1.0512275750549271e+02  1.0228740446006173e+01  3.9338564494090522e+00  8.3195721868839509e+00  1.8422875499309852e+00  8.5729294375263365e+01  8.9488649964358160e+01  -1.4672184305931391e+00  4.7650192626865945e+01  1.0300872660090296e+02  5.0013239172405292e+01  2.0188800112298246e+01  8.4709247922920710e+01  7.6225895392549063e+01  2.6552788166338441e+01  -9.2941050268662251e-01  1.0315784889185815e+02  1.0502517315775965e+02  -9.9407907403185725e-01  2.4087454877959050e+01  6.2827857733090447e+01  1.0437115593282975e+02  2.9819606649159214e+00  -1.9570850157223072e+00  1.1114250805058538e+02  6.1260223417422665e+01  -1.2399934063050666e+00  1.5419839465512946e+00  6.8914252570101667e+01  6.1600118013577330e+01  6.8530336583077656e+01  6.7261339018030270e+01  1.0157083120434254e+02  4.8520684676282713e+01  -3.4475346846864681e+00  -4.2820496300650461e+00  5.6914363602327739e+01  8.4873893827402242e+01  3.1791775265641263e+01  1.0338100164160765e+02  -7.0007404945403593e+00  1.1071470743913405e+02  1.1345669250900706e+02  -1.2532652585298610e+01  1.1077615248530758e+02  1.1499367101767068e+02  1.1231557068059348e+02  1.0886435782894388e+02  1.1234670105751817e+02  -9.3423546430672797e+00  1.1235277866601744e+02  1.1236608735852025e+02  1.1236363854135210e+02  1.1237058770514130e+02  1.1236996797264990e+02  1.1235933885421984e+02  1.1236763097939065e+02  5.9406099661887247e+01  5.9971584465394109e+01  5.7026453549482305e+01  5.7610296429565842e+01  5.9725054621091962e+00  1.0592133713226987e+02  1.0104181414992114e+02  9.0223550443147360e+01  1.0721410483752288e+02  8.2752459942044780e+01  1.0433412493532546e+02  1.2563715290600077e+00  9.7045625306815708e+01  9.8844590162432084e+01  1.0324795454095920e+02  9.6082289298383657e+01  1.0236590830019439e+02  5.9187818868963184e+01  7.8352272250614845e+01  9.0935693774356032e+00  2.9742809941974233e+01  1.1653111377659973e+00  4.1615733467076346e+01  4.7362566012048957e+00  5.6566689902568514e+00  1.7962637461253568e+01  1.0349495213130128e+02  2.8692434560063145e+00  8.4532177138299488e+01  -4.3659058136502029e+00  4.9720340475489110e+01  1.0461460196584555e+02  1.0618791615192745e+02  3.7874399094544707e+01  8.1024080808400257e+01  2.5851923293629366e+00  1.0571202021909338e+02  1.1033728967982279e+01  8.0805080362013051e+00  -1.5746912517850318e+00  7.4128464610965927e-01  8.5627667619409223e+01  5.3674278202429285e+01  2.8475806129878078e-01  6.8080215860373187e+01  7.5040870822767161e+01  9.8227216519147419e+01  -5.2050643699623422e-01  1.6974197980380360e+01  1.0830722603274954e+02  1.0433299650963042e+02  1.0227462371764429e+02  4.3798718895306486e+01  6.3423174231197031e+01  2.0980126882912643e+01  8.0361034952329806e+00  9.3018003838046937e+01  -1.6478170367752529e+00  1.0974691601333866e+02  4.7045043001176881e+00  1.0841342784695827e+02  7.2288271151410441e+01  -1.2399665225584300e+00  1.1241417595476679e+02  6.9342515464358357e+01  7.2719788798115260e+01  1.0571186343923249e+02  -1.9143720171798089e+00  5.7427358576895273e+01  5.3071291623048545e+01  5.5618259980402115e+01  3.5354818266526678e+01  1.0615278817235917e+02  -3.7279133848818549e+00  -2.2908738121324275e+00  5.8888120869716332e+01  6.0442173723033108e+01  6.4067487341635143e+01  7.2883226105591177e+01  -8.4728564882667445e+00  1.7101019220988206e+01  7.9383436532830302e+01  5.6292212281054425e+01  -1.2400456638511953e+01  5.7137686130186736e+01  1.0461280868616524e+02  9.1629770928332974e+01  1.0242948049819677e+02  -5.3169780240812718e+00  1.1031641855591033e+02  1.1882216093772026e+02  -1.0419721230064715e+01  1.1247625483513868e+02  -8.3670384188957865e+00  1.1204201446338263e+02  1.1509376414345670e+02  1.1241686265870136e+02  1.1236718018426978e+02  1.1232817039212054e+02  1.1236721804969710e+02  -8.9485191435012457e+00  6.0468085245112349e+01  5.6729787273701007e+01  9.0224785444170308e+01  1.0299155205049333e+02  1.0194124886966119e+02  3.1098593334201725e+00  8.3858466398980212e+01  1.0100909675236973e+02  6.2041173023807996e+00  8.6248665571786802e+01  1.0447220070229500e+02  1.0765942493761014e+02  9.8628798250765414e+01  7.9336838769017334e+01  5.4750764917248368e+01  8.9941543989418463e+01  1.7548713202752040e+00  2.4303702995357606e+00  1.0578913181492298e+02  9.2635332530452601e+01  1.4609470393556041e+01  1.4002435456669948e+00  1.0781017166161340e+02  1.0659798505932635e+02  1.0930310733090695e+02  1.0606759327341686e+02  1.0445248981761026e+02  3.8803914332540209e+01  1.2147590233259011e+00  9.7368287890600868e+01  1.0309979036332682e+02  9.3474224218380073e+01  5.0661940232819924e-01  -1.8655691025430041e+00  -2.8730872991200529e-02  4.4974458953100243e+00  5.9501052104410988e+01  1.2313729865667609e+01  5.2799112464092566e+01  1.0574720101639247e+02  -1.8860862953777950e+00  1.0755488602848584e+02  7.7024896948261286e+01  8.6129662816052090e+01  7.2933109981678655e+01  1.0768079337009699e+02  6.2426341535533975e-02  2.4536876338293588e+01  1.4805978214847283e+01  8.4807509964696735e+01  3.0165444069060399e+01  1.0343923296724124e+02  1.1801698281083810e+01  1.0694741561543483e+02  1.0421767871702971e+02  7.4865367961509733e+01  6.6040268993743069e+01  7.1434156537935991e+01  1.0495307441480256e+02  4.9754333883308242e+01  2.2647074005007575e+01  9.4559285288595476e+01  -2.3800018303022064e-01  1.1392043823528576e+02  1.0966837805562737e+02  1.7046447124525022e+00  -1.0201104362604401e+00  1.1024514228299405e+02  1.0921668609506580e+02  -5.9386482095764741e+00  1.7687760764820091e+01  5.6028915700483189e+01  5.7684514882668367e+01  -2.6619085760888370e+00  7.4860663052014109e+00  8.2313845972743763e+01  6.3818889738623881e+01  4.1416416356209169e+01  -4.2221947173680041e+00  6.5905316830176432e+01  6.2006825262320540e+01  -2.5317535411588197e+00  -2.3802450432750977e+00  5.9930291993059406e+01  7.3399815083534818e+01  9.0723357204109206e+01  5.5831132668505951e+01  1.9430534877651078e+00  3.9928775220467706e+01  1.1664300277433874e+02  1.0756471784270136e+02  1.0666300796557023e+02  8.2893744660971720e+01  6.6001187784912759e+01  -9.5712285315738144e-01  9.3451631448226777e+01  2.5751641080682490e+00  1.1175557135685399e+02  4.1355345328363116e-02  5.8469290180130187e+01  2.2771165943550500e+01  2.7330875617330332e+01  5.7451998564870884e+01  5.5905412149389910e+01  7.4953936981525132e+01  8.3030742963089651e+01  7.1102720784059883e+01  -2.2997928947815009e+01  -1.9414874096676453e+01  5.8708730648899191e+01  5.4389017635490099e+01  -7.9432520585382287e+00  5.8331460208931148e+01  -8.9648441204057860e+00  6.0544450134795916e+01  1.0939803620555915e+02  9.5063402006770644e+01  1.0715277467948427e+02  8.3146287856055125e+01  8.6579628356814908e+01  4.7924076796418831e+00  1.0467430705534761e+02  9.5252172569387028e+01  8.6720957081881366e+01  5.4705049797346064e+01  1.0786902622103661e+02  8.8977501324424054e+01  1.0348525579899938e+02  6.3516785170235637e-02  3.2714401770573730e+01  7.9161428891445510e+01  4.5806510507511362e+01  5.9376553082992459e+01  1.0117430156014430e+02  1.0651108052459023e+02  9.9573784538381915e+01  3.3030290823505290e+01  5.0808717364094683e+01  2.9841003192774309e+01  -2.2354262929199367e+00  8.1570898821983747e+01  1.0831629223160834e+02  1.3660096328695903e+00  9.0584099729355671e+01  1.0648383668178998e+02  1.0551550240380288e+02  -1.8995728337724094e+00  1.0722958592295095e+02  1.0271042832458812e+02  1.0674271009029080e+02  2.2598106486109181e+01  1.0084639040544307e+02  5.4373648683623763e+01  9.3931058646873822e+01  7.0360517259938561e+01  1.7196319588994008e+01  7.4609742248023121e+00  1.4043017095549560e+01  5.4944286619338151e+01  6.4120834516327250e+01  4.8524633284607166e+00  5.1678520037110019e+01  7.9415994431346491e+01  9.5819435470393231e+01  4.9628770220698790e+01  -1.0586993940311640e-01  1.0413737635667928e+02  1.0759743607560661e+02  7.9607977955843992e+01  -2.8301351044524292e+00  1.0832071415406180e+02  7.8524315920467078e+00  1.0559218978353135e+02  1.0414242349290784e+02  1.1162204198412655e+02  6.9715132039909506e+01  5.2435269651718151e+01  1.2686352322533770e+01  -5.6613066273709416e+00  1.1240810299359147e+02  1.0990975494721293e+02  7.9688326496841398e+01  1.0186902231910810e+02  -2.9721234285690858e+00  1.1659509586154829e+02  1.0813984815671810e+02  6.8481031683775470e+01  -9.8583922333865619e+00  1.1446061051343406e+02  5.6420957463507889e+01  6.1970820630207655e+01  8.6607427877668059e+01  6.4537192883375624e+01  7.6233812506185288e+01  5.5944512745219143e+01  1.1628891566062015e+02  -6.3796228635964987e+00  1.2469050945724716e+01  5.3165947519313718e+01  5.7364050170695862e+01  9.4096354668419018e+00  8.3421792581185457e+01  5.8507260434875349e+01  5.6739938579888168e+01  1.0046423764011814e+02  6.5358879736131044e+01  3.7553956822504404e+01  1.0986083726371805e+02  5.8451508046549428e+01  1.0711845874033787e+02  1.1849872752943313e+02  9.6653437618486507e+01  5.7050384291652854e+01  5.6396484214634732e+01  6.7019129981688991e+01  5.4314336656375097e+01  5.6687497697991766e+01  -2.4709872902920495e+01  6.0069923454845522e+01  5.9409086955110197e+01  5.5697385303473965e+01  3.4934494317185667e+01  8.3852823493387561e+01  9.2137034975044273e+01  1.0426746856014286e+02  1.0778131708187969e+02  -2.8200250478873148e+00  9.9348661774037367e+01  2.6522650265750006e+01  9.6020290771092647e+01  9.7149339099321466e+01  1.0935505727061361e+02  9.2905459710560336e+01  1.0575484792313544e+02  9.0004418572968589e+01  -2.3184501776709321e+00  8.4236122587859768e+01  1.0914906412952369e+02  3.7401729067372855e+01  7.5975195450529455e+01  1.0835608285304276e+02  4.0676675777871736e+01  1.0837900898202226e+02  1.0433390297496932e+02  1.0434190390260851e+02  5.3572076916692758e+01  1.0606723250750275e+02  1.2059196139718974e+01  -2.9758267649940588e+00  5.3316665070280813e+01  5.5960702126205760e+01  7.8641227540906797e+01  4.5225293865334976e+01  8.7252144290143391e+01  1.0404396002578662e+02  3.0037241276741653e+01  1.5445787916366887e+01  -3.7896969339164390e+00  1.1445016047256208e+02  1.0914618612333236e+02  8.2660635881217942e+01  -3.8067371193981719e-01  1.0677852752761707e+02  6.4990139246197629e+01  1.1296647772274724e+02  1.0738668115341903e+02  4.6942035440304323e+01  5.6437427889133971e+01  5.7562319117753034e+01  8.9825724293656286e+00  7.1799778389619760e+01  9.8703353667709948e+01  1.0629634395960419e+02  8.4572867818432343e+01  5.8345653635331665e+01  6.4059449799894026e+01  5.4926527751245629e+01  1.0933972008012525e+02  2.3619745487104137e+01  -9.1313493765171909e+00  9.0156582051982298e+01  1.1576855765667244e+02  1.0673961823938394e+02  1.0755034117323903e+02  5.6927341443582819e+01  1.1933596823106247e+02  -1.1319660519810363e+01  5.6948379764489282e+01  1.1530410160159305e+02  1.1731467320185209e+02  1.0769031916601935e+02  8.4063752033442938e+01  7.8297250521625784e+01  7.0676744876688730e+01  3.3125079837514924e+01  -6.0766852971491971e+00  7.4137041465430570e+01  5.5429953587797726e+01  5.5318448297542147e+01  5.6778113251288367e+01  5.6501492956122419e+01  5.7947864309258534e+01  1.1909481246344150e+02  9.5304355658946193e+01  1.0217658783903993e+02  1.0458528520925208e+02  9.2773672274795430e+01  8.8037552801406719e+01  1.0250149898083993e+02  4.5072998928857109e+00  1.1117964815435396e+02  2.9737640988198841e+01  4.6653159964162803e+01  1.1250407208632140e+02  6.4488389455480757e+01  1.0381674063622805e+02  1.0632642875092354e+02  3.2664135893089759e+00  8.5127667646477491e+01  1.0607173428747804e+02  5.5111632943600384e+01  8.0680750237205544e+01  8.8896849366786284e+01  1.1472763541464630e+02  1.1530889985342836e+02  1.0947895360295887e+02  1.1566677978910950e+02  1.0730096295840210e+02  5.7633144176500252e+01  5.6812018129414909e+01  1.2005289838463695e+02  1.2072704861728216e+02  5.8498801683399741e+01  -5.6691018057683182e+00  1.2010796243939687e+02  1.1839962524726396e+02  5.7504555485962030e+01  5.7296731811302323e+01  5.6290284143869144e+01  5.8868228671872551e+01  5.3692677671828470e+01  1.0546298171926043e+02  7.2022384840678654e+01  2.9237524917329644e+01  9.8503777382754393e+01  -9.5715751282863479e+00  7.2725043715286560e+01  1.2395187110373296e+02  1.1659975892199262e+02  5.7227213487753090e+01  5.8613478285417798e+01  1.1027648049916260e+02  3.0158597128402146e+01  1.2170374146077479e+02  5.8776641095631128e+01  5.7817578763198981e+01  5.7125025681236622e+01  9.2516668973558296e+01  5.7744109143411620e+01  </DataArray> 
</PointData> 
</Piece>
</UnstructuredGrid>
</VTKFile>