<?xml version="1.0"?>
<VTKFile type="UnstructuredGrid"  version="0.1"  >
<UnstructuredGrid>
<Piece  NumberOfPoints="759" NumberOfCells="1350">
<Points>
<DataArray  type="Float64"  NumberOfComponents="3"  format="ascii">0.534923 0.326073 0  0.510642 0.314196 0  0.466125 0.293082 0  0.436448 0.281205 0  0.409468 0.275927 0  0.368998 0.270648 0  0.35281 0.275927 0  0.381139 0.302319 0  0.405421 0.326073 0  0.410817 0.33531 0  0.408119 0.349826 0  0.400025 0.357744 0  0.375743 0.368301 0  0.329878 0.392055 0  0.297502 0.432963 0  0.282663 0.476511 0  0.285361 0.524018 0  0.298851 0.572845 0  0.317737 0.6045160000000001 0  0.337972 0.6361869999999999 0  0.360904 0.674457 0  0.368998 0.69953 0  0.359555 0.7219640000000001 0  0.360904 0.757594 0  0.370347 0.766831 0  0.381139 0.762872 0  0.390582 0.741758 0  0.404072 0.720644 0  0.424307 0.707448 0  0.447239 0.702169 0  0.480964 0.704808 0  0.479615 0.6889729999999999 0  0.468823 0.675776 0  0.447239 0.6691780000000001 0  0.428354 0.6691780000000001 0  0.410817 0.6639 0  0.404072 0.653343 0  0.395978 0.628269 0  0.387884 0.59132 0  0.389233 0.576804 0  0.397327 0.557009 0  0.410817 0.547772 0  0.424307 0.546452 0  0.437797 0.55305 0  0.44589 0.5662469999999999 0  0.441843 0.582082 0  0.439145 0.5979179999999999 0  0.449937 0.609795 0  0.468823 0.603196 0  0.479615 0.59 0  0.489058 0.570205 0  0.494454 0.546452 0  0.505246 0.522699 0  0.522783 0.509502 0  0.55246 0.494986 0  0.586185 0.484429 0  0.615863 0.48047 0  0.64554 0.473872 0  0.6671240000000001 0.461995 0  0.683312 0.451438 0  0.696802 0.435603 0  0.703547 0.417128 0  0.7116400000000001 0.393374 0  0.7183850000000001 0.37226 0  0.7251300000000001 0.364342 0  0.739969 0.353785 0  0.7453650000000001 0.344548 0  0.7453650000000001 0.327393 0  0.737271 0.318155 0  0.7183850000000001 0.316835 0  0.7008490000000001 0.319475 0  0.677916 0.318155 0  0.650936 0.316835 0  0.610467 0.318155 0  0.57944 0.324753 0  0.559205 0.328712 0  0.5389699999999999 0.326073 0  1 1 0  1 0 0  0 0 0  0 1 0  0.532238 0.32476 0  0.528748 0.323052 0  0.52421 0.320833 0  0.518311 0.317947 0  0.503447 0.310783 0  0.494093 0.306347 0  0.481933 0.30058 0  0.452151 0.28749 0  0.392327 0.273691 0  0.379141 0.271971 0  0.360474 0.283066 0  0.369797 0.291752 0  0.391424 0.31238 0  0.399335 0.32012 0  0.40958 0.341964 0  0.393939 0.36039 0  0.386028 0.36383 0  0.364248 0.374254 0  0.349304 0.381994 0  0.315801 0.409841 0  0.292986 0.551616 0  0.350934 0.657818 0  0.360127 0.737055 0  0.360566 0.748664 0  0.385245 0.753692 0  0.396447 0.732578 0  0.466301 0.703661 0  0.459439 0.672908 0  0.418442 0.666195 0  0.400553 0.642441 0  0.39255 0.612619 0  0.389913 0.60058 0  0.392752 0.568197 0  0.444131 0.573132 0  0.458149 0.606926 0  0.5005540000000001 0.533026 0  0.571522 0.489019 0  0.632637 0.476741 0  0.689177 0.444553 0  0.708121 0.403702 0  0.715453 0.38144 0  0.732406 0.359166 0  0.7453650000000001 0.337089 0  0.72906 0.317581 0  0.629879 0.317522 0  0.59293 0.321884 0  0.568003 0.326991 0  0.55202 0.327775 0  0.546493 0.327054 0  0.542241 0.326499 0  1 0.9 0  1 0.8 0  1 0.7 0  1 0.6 0  1 0.5 0  1 0.4 0  1 0.3 0  1 0.2 0  1 0.1 0  0.9 0 0  0.8 0 0  0.7 0 0  0.6 0 0  0.5 0 0  0.4 0 0  0.3 0 0  0.2 0 0  0.1 0 0  0.1 1 0  0.2 1 0  0.3 1 0  0.4 1 0  0.5 1 0  0.6 1 0  0.7 1 0  0.8 1 0  0.9 1 0  0 0.1 0  0 0.2 0  0 0.3 0  0 0.4 0  0 0.5 0  0 0.6 0  0 0.7 0  0 0.8 0  0 0.9 0  0.535686 0.5031910000000001 0  0.753987 0.733359 0  0.167145 0.741436 0  0.173378 0.257204 0  0.733497 0.159862 0  0.554096 0.15788 0  0.849187 0.479053 0  0.488793 0.838452 0  0.138507 0.5592 0  0.30686 0.154944 0  0.348904 0.890523 0  0.058006 0.065099 0  0.06984899999999999 0.937917 0  0.93633 0.939704 0  0.934625 0.053613 0  0.343397 0.333452 0  0.473272 0.639943 0  0.433266 0.638072 0  0.415174 0.58269 0  0.533435 0.545042 0  0.390848 0.340652 0  0.53655 0.320242 0  0.127966 0.393775 0  0.83861 0.850455 0  0.635242 0.8551299999999999 0  0.852158 0.633441 0  0.653427 0.626848 0  0.861226 0.24292 0  0.166128 0.12976 0  0.216875 0.8698709999999999 0  0.458305 0.11179 0  0.84446 0.101633 0  0.202024 0.642528 0  0.644825 0.115855 0  0.671342 0.218358 0  0.251354 0.286186 0  0.262388 0.75153 0  0.063044 0.751571 0  0.068189 0.242962 0  0.435781 0.9053949999999999 0  0.934144 0.451133 0  0.568393 0.237622 0  0.814984 0.395506 0  0.752951 0.517227 0  0.456254 0.780699 0  0.073352 0.531116 0  0.337731 0.206071 0  0.363213 0.960371 0  0.330742 0.363592 0  0.516613 0.55705 0  0.369057 0.332992 0  0.500926 0.617309 0  0.498004 0.665534 0  0.412142 0.61178 0  0.454233 0.6366039999999999 0  0.422782 0.567496 0  0.541193 0.5214800000000001 0  0.439761 0.65557 0  0.5163 0.533672 0  0.414775 0.64562 0  0.40073 0.576135 0  0.430362 0.5880339999999999 0  0.385432 0.351492 0  0.400298 0.335397 0  0.398325 0.348194 0  0.528702 0.314885 0  0.540814 0.322334 0  0.534477 0.322953 0  0.619095 0.743583 0  0.885162 0.737972 0  0.08076 0.668849 0  0.90734 0.36634 0  0.09468699999999999 0.868937 0  0.759838 0.912152 0  0.901518 0.540898 0  0.747285 0.607479 0  0.229182 0.071641 0  0.06915399999999999 0.450091 0  0.244775 0.203309 0  0.076534 0.331755 0  0.897847 0.167826 0  0.578909 0.911415 0  0.07713299999999999 0.146341 0  0.477215 0.203448 0  0.922631 0.869341 0  0.517415 0.074785 0  0.297026 0.827793 0  0.7832710000000001 0.246505 0  0.74519 0.061079 0  0.36033 0.069068 0  0.210313 0.475228 0  0.859426 0.928758 0  0.5745479999999999 0.609182 0  0.243069 0.383398 0  0.283099 0.934598 0  0.417416 0.843141 0  0.643942 0.553164 0  0.112687 0.079336 0  0.281357 0.658386 0  0.765043 0.436177 0  0.611361 0.198486 0  0.234496 0.58911 0  0.206479 0.702638 0  0.679608 0.155818 0  0.62682 0.259978 0  0.690538 0.264164 0  0.448938 0.956308 0  0.808154 0.328403 0  0.379583 0.91913 0  0.308083 0.297769 0  0.312358 0.730249 0  0.563101 0.278576 0  0.435597 0.746198 0  0.385475 0.225229 0  0.572248 0.518034 0  0.357864 0.35422 0  0.497647 0.641694 0  0.458101 0.655768 0  0.360474 0.310727 0  0.467038 0.620139 0  0.47798 0.659909 0  0.41102 0.628072 0  0.48324 0.609015 0  0.427544 0.617941 0  0.388633 0.328253 0  0.405336 0.599404 0  0.408351 0.565178 0  0.42395 0.600985 0  0.431562 0.576523 0  0.424905 0.6551979999999999 0  0.398064 0.58782 0  0.427739 0.557934 0  0.5192909999999999 0.303443 0  0.53142 0.320293 0  0.5449000000000001 0.323642 0  0.537166 0.323513 0  0.153974 0.920841 0  0.9181859999999999 0.67343 0  0.759946 0.820588 0  0.5375259999999999 0.783091 0  0.816532 0.545843 0  0.813991 0.178083 0  0.836774 0.702023 0  0.149815 0.318856 0  0.662287 0.923338 0  0.680146 0.791192 0  0.708961 0.663172 0  0.9372779999999999 0.287318 0  0.574622 0.6881660000000001 0  0.5894740000000001 0.076262 0  0.502822 0.926683 0  0.222269 0.811068 0  0.380457 0.164786 0  0.15321 0.684154 0  0.458063 0.051413 0  0.161702 0.056026 0  0.199351 0.198818 0  0.298946 0.09553200000000001 0  0.902465 0.795949 0  0.121139 0.791477 0  0.906269 0.112287 0  0.056109 0.822332 0  0.512172 0.13237 0  0.940964 0.741805 0  0.888887 0.408777 0  0.354543 0.825964 0  0.808736 0.068638 0  0.068507 0.394071 0  0.719105 0.563843 0  0.247287 0.149664 0  0.293062 0.237128 0  0.240524 0.434997 0  0.141255 0.623289 0  0.945202 0.160621 0  0.502914 0.247629 0  0.144669 0.480811 0  0.665025 0.060817 0  0.728047 0.224344 0  0.861995 0.313312 0  0.200068 0.534235 0  0.253262 0.965623 0  0.893804 0.49307 0  0.604391 0.572456 0  0.947088 0.345347 0  0.439372 0.227307 0  0.629847 0.159823 0  0.273405 0.880181 0  0.302744 0.776823 0  0.781502 0.295365 0  0.275342 0.349602 0  0.7283849999999999 0.472798 0  0.229136 0.246478 0  0.807794 0.480346 0  0.709476 0.112786 0  0.275506 0.694991 0  0.771674 0.394419 0  0.449715 0.861802 0  0.419159 0.799696 0  0.674851 0.503139 0  0.280443 0.61016 0  0.572443 0.192538 0  0.393113 0.87525 0  0.405555 0.948428 0  0.330942 0.934103 0  0.540509 0.597101 0  0.312763 0.6689310000000001 0  0.254368 0.540179 0  0.595265 0.25915 0  0.606679 0.234099 0  0.657131 0.279138 0  0.722458 0.279478 0  0.333 0.308056 0  0.351529 0.246142 0  0.455714 0.7257940000000001 0  0.585239 0.295143 0  0.340062 0.72492 0  0.545593 0.293773 0  0.555449 0.545426 0  0.414311 0.737314 0  0.590854 0.502323 0  0.350507 0.368444 0  0.484423 0.625665 0  0.483899 0.674542 0  0.378137 0.317274 0  0.446416 0.646404 0  0.373532 0.347654 0  0.446876 0.619769 0  0.466106 0.666068 0  0.437545 0.609254 0  0.434988 0.565726 0  0.41462 0.656829 0  0.418803 0.556961 0  0.398425 0.327446 0  0.517803 0.310421 0  0.549516 0.322918 0  0.57701 0.842889 0  0.8291269999999999 0.773906 0  0.643235 0.684732 0  0.134281 0.207734 0  0.865997 0.055966 0  0.680959 0.723345 0  0.165229 0.8415550000000001 0  0.54558 0.959672 0  0.783726 0.656439 0  0.913315 0.595533 0  0.699439 0.860667 0  0.785839 0.125076 0  0.551673 0.037713 0  0.9200970000000001 0.223214 0  0.206406 0.299726 0  0.087064 0.596401 0  0.935644 0.394252 0  0.964557 0.252582 0  0.230124 0.928346 0  0.120579 0.271764 0  0.8572149999999999 0.524082 0  0.7670979999999999 0.5551469999999999 0  0.936094 0.507131 0  0.804064 0.59585 0  0.700565 0.608273 0  0.429773 0.174231 0  0.117746 0.727333 0  0.5389620000000001 0.730231 0  0.862761 0.359173 0  0.821444 0.284046 0  0.193552 0.35818 0  0.234923 0.505555 0  0.193209 0.421217 0  0.220144 0.755896 0  0.594015 0.131642 0  0.283813 0.195855 0  0.517519 0.213961 0  0.553509 0.639116 0  0.280391 0.378018 0  0.852183 0.436817 0  0.746983 0.197173 0  0.821806 0.221318 0  0.449853 0.828453 0  0.883758 0.453926 0  0.183484 0.589542 0  0.348384 0.129314 0  0.255254 0.838525 0  0.504849 0.798516 0  0.320344 0.863432 0  0.611669 0.525425 0  0.265864 0.804962 0  0.72056 0.521442 0  0.613372 0.6101220000000001 0  0.481262 0.881068 0  0.655778 0.191988 0  0.701921 0.196918 0  0.5658260000000001 0.5731810000000001 0  0.46914 0.240927 0  0.343219 0.173284 0  0.888786 0.278502 0  0.244113 0.6750930000000001 0  0.739546 0.417914 0  0.784023 0.355942 0  0.326805 0.265549 0  0.248616 0.63
[...]
<PointData  Vectors="f_19-0"> 
<DataArray  type="Float64"  Name="f_19-0"  NumberOfComponents="3" format="ascii">0.0000000000000000e+00 0.0000000000000000e+00 0.0000000000000000e+00  0.0000000000000000e+00 -3.7586877471376305e-17 0.0000000000000000e+00  0.0000000000000000e+00 0.0000000000000000e+00 0.0000000000000000e+00  0.0000000000000000e+00 7.5135147666664478e-17 0.0000000000000000e+00  0.0000000000000000e+00 0.0000000000000000e+00 0.0000000000000000e+00  0.0000000000000000e+00 0.0000000000000000e+00 0.0000000000000000e+00  0.0000000000000000e+00 0.0000000000000000e+00 0.0000000000000000e+00  3.3393308227962188e-17 0.0000000000000000e+00 0.0000000000000000e+00  0.0000000000000000e+00 0.0000000000000000e+00 0.0000000000000000e+00  -5.3240019734031156e-19 0.0000000000000000e+00 0.0000000000000000e+00  8.8349649651770886e-19 0.0000000000000000e+00 0.0000000000000000e+00  0.0000000000000000e+00 0.0000000000000000e+00 0.0000000000000000e+00  0.0000000000000000e+00 0.0000000000000000e+00 0.0000000000000000e+00  0.0000000000000000e+00 0.0000000000000000e+00 0.0000000000000000e+00  0.0000000000000000e+00 0.0000000000000000e+00 0.0000000000000000e+00  0.0000000000000000e+00 0.0000000000000000e+00 0.0000000000000000e+00  0.0000000000000000e+00 0.0000000000000000e+00 0.0000000000000000e+00  0.0000000000000000e+00 0.0000000000000000e+00 0.0000000000000000e+00  -3.7775634612184323e-18 -1.0335272394713764e-17 0.0000000000000000e+00  -1.9147752017128866e-18 0.0000000000000000e+00 0.0000000000000000e+00  0.0000000000000000e+00 0.0000000000000000e+00 0.0000000000000000e+00  2.2356809163650165e-18 0.0000000000000000e+00 0.0000000000000000e+00  -2.5559311696418349e-17 0.0000000000000000e+00 0.0000000000000000e+00  0.0000000000000000e+00 0.0000000000000000e+00 0.0000000000000000e+00  0.0000000000000000e+00 0.0000000000000000e+00 0.0000000000000000e+00  0.0000000000000000e+00 0.0000000000000000e+00 0.0000000000000000e+00  -1.7437302604626207e-17 0.0000000000000000e+00 0.0000000000000000e+00  0.0000000000000000e+00 0.0000000000000000e+00 0.0000000000000000e+00  -3.3311823982534220e-18 8.7669419279572896e-19 0.0000000000000000e+00  0.0000000000000000e+00 0.0000000000000000e+00 0.0000000000000000e+00  0.0000000000000000e+00 0.0000000000000000e+00 0.0000000000000000e+00  0.0000000000000000e+00 0.0000000000000000e+00 0.0000000000000000e+00  0.0000000000000000e+00 0.0000000000000000e+00 0.0000000000000000e+00  0.0000000000000000e+00 -1.8528066179479470e-17 0.0000000000000000e+00  0.0000000000000000e+00 -5.0485930705414016e-17 0.0000000000000000e+00  6.1569958967779212e-18 -6.1505305439881046e-19 0.0000000000000000e+00  0.0000000000000000e+00 0.0000000000000000e+00 0.0000000000000000e+00  -4.7372155356338134e-19 0.0000000000000000e+00 0.0000000000000000e+00  -1.5623915014322384e-16 0.0000000000000000e+00 0.0000000000000000e+00  3.3843606555546779e-17 0.0000000000000000e+00 0.0000000000000000e+00  0.0000000000000000e+00 0.0000000000000000e+00 0.0000000000000000e+00  0.0000000000000000e+00 -3.8172551135178309e-17 0.0000000000000000e+00  0.0000000000000000e+00 0.0000000000000000e+00 0.0000000000000000e+00  2.0013131694373937e-17 0.0000000000000000e+00 0.0000000000000000e+00  -2.0388820487680930e-17 0.0000000000000000e+00 0.0000000000000000e+00  0.0000000000000000e+00 0.0000000000000000e+00 0.0000000000000000e+00  0.0000000000000000e+00 0.0000000000000000e+00 0.0000000000000000e+00  0.0000000000000000e+00 0.0000000000000000e+00 0.0000000000000000e+00  -4.3807793977438478e-17 0.0000000000000000e+00 0.0000000000000000e+00  0.0000000000000000e+00 0.0000000000000000e+00 0.0000000000000000e+00  1.9338906519970194e-17 0.0000000000000000e+00 0.0000000000000000e+00  0.0000000000000000e+00 0.0000000000000000e+00 0.0000000000000000e+00  -1.3252467064124765e-17 0.0000000000000000e+00 0.0000000000000000e+00  0.0000000000000000e+00 0.0000000000000000e+00 0.0000000000000000e+00  0.0000000000000000e+00 1.5944301304771797e-16 0.0000000000000000e+00  0.0000000000000000e+00 0.0000000000000000e+00 0.0000000000000000e+00  5.4228084092800907e-17 3.9467365089391898e-18 0.0000000000000000e+00  0.0000000000000000e+00 0.0000000000000000e+00 0.0000000000000000e+00  7.3143165968662583e-18 4.4246725648782346e-17 0.0000000000000000e+00  1.9542318766933247e-16 0.0000000000000000e+00 0.0000000000000000e+00  -4.3828481872471772e-17 0.0000000000000000e+00 0.0000000000000000e+00  1.0424293567555897e-16 0.0000000000000000e+00 0.0000000000000000e+00  0.0000000000000000e+00 0.0000000000000000e+00 0.0000000000000000e+00  1.0985646008824406e-18 0.0000000000000000e+00 0.0000000000000000e+00  0.0000000000000000e+00 0.0000000000000000e+00 0.0000000000000000e+00  0.0000000000000000e+00 0.0000000000000000e+00 0.0000000000000000e+00  0.0000000000000000e+00 0.0000000000000000e+00 0.0000000000000000e+00  0.0000000000000000e+00 0.0000000000000000e+00 0.0000000000000000e+00  0.0000000000000000e+00 0.0000000000000000e+00 0.0000000000000000e+00  0.0000000000000000e+00 0.0000000000000000e+00 0.0000000000000000e+00  0.0000000000000000e+00 9.3893264220751734e-17 0.0000000000000000e+00  0.0000000000000000e+00 0.0000000000000000e+00 0.0000000000000000e+00  0.0000000000000000e+00 -3.2646613928060547e-17 0.0000000000000000e+00  0.0000000000000000e+00 0.0000000000000000e+00 0.0000000000000000e+00  0.0000000000000000e+00 2.7047354400313642e-17 0.0000000000000000e+00  0.0000000000000000e+00 -4.0878943954520119e-17 0.0000000000000000e+00  0.0000000000000000e+00 2.5078111834934493e-19 0.0000000000000000e+00  0.0000000000000000e+00 -1.6453251416110208e-17 0.0000000000000000e+00  -1.5545940662807668e-16 6.3122443405962581e-17 0.0000000000000000e+00  0.0000000000000000e+00 0.0000000000000000e+00 0.0000000000000000e+00  0.0000000000000000e+00 0.0000000000000000e+00 0.0000000000000000e+00  -3.4024071924065974e-17 0.0000000000000000e+00 0.0000000000000000e+00  -5.2438306000500302e-18 2.6416758522657147e-18 0.0000000000000000e+00  0.0000000000000000e+00 -2.9010697999148459e-17 0.0000000000000000e+00  0.0000000000000000e+00 0.0000000000000000e+00 0.0000000000000000e+00  3.6366061702811115e-17 0.0000000000000000e+00 0.0000000000000000e+00  0.0000000000000000e+00 4.8580138793049605e-17 0.0000000000000000e+00  2.5398248059990806e-18 -1.0420638699681482e-16 0.0000000000000000e+00  0.0000000000000000e+00 0.0000000000000000e+00 0.0000000000000000e+00  0.0000000000000000e+00 -9.5815312910153976e-18 0.0000000000000000e+00  0.0000000000000000e+00 0.0000000000000000e+00 0.0000000000000000e+00  1.1568841445404772e-17 7.5430524958586224e-18 0.0000000000000000e+00  0.0000000000000000e+00 4.2645681442566668e-17 0.0000000000000000e+00  0.0000000000000000e+00 0.0000000000000000e+00 0.0000000000000000e+00  -1.1537634850419478e-17 0.0000000000000000e+00 0.0000000000000000e+00  -4.5734945874338044e-18 0.0000000000000000e+00 0.0000000000000000e+00  0.0000000000000000e+00 0.0000000000000000e+00 0.0000000000000000e+00  0.0000000000000000e+00 0.0000000000000000e+00 0.0000000000000000e+00  0.0000000000000000e+00 0.0000000000000000e+00 0.0000000000000000e+00  0.0000000000000000e+00 0.0000000000000000e+00 0.0000000000000000e+00  1.0629460400507563e-17 0.0000000000000000e+00 0.0000000000000000e+00  1.2363085395628083e-18 0.0000000000000000e+00 0.0000000000000000e+00  1.2625378866430606e-18 2.2669522587845661e-17 0.0000000000000000e+00  1.6967047775641728e-17 0.0000000000000000e+00 0.0000000000000000e+00  1.3403716646662233e-17 0.0000000000000000e+00 0.0000000000000000e+00  0.0000000000000000e+00 0.0000000000000000e+00 0.0000000000000000e+00  -1.0556392265645512e-16 0.0000000000000000e+00 0.0000000000000000e+00  0.0000000000000000e+00 1.0644406416756735e-16 0.0000000000000000e+00  0.0000000000000000e+00 -1.9587431355628431e-16 0.0000000000000000e+00  0.0000000000000000e+00 1.9592462905235676e-17 0.0000000000000000e+00  0.0000000000000000e+00 0.0000000000000000e+00 0.0000000000000000e+00  0.0000000000000000e+00 0.0000000000000000e+00 0.0000000000000000e+00  0.0000000000000000e+00 0.0000000000000000e+00 0.0000000000000000e+00  0.0000000000000000e+00 0.0000000000000000e+00 0.0000000000000000e+00  0.0000000000000000e+00 0.0000000000000000e+00 0.0000000000000000e+00  0.0000000000000000e+00 -4.0452075820372791e-17 0.0000000000000000e+00  -1.6992879202176472e-17 0.0000000000000000e+00 0.0000000000000000e+00  2.2014922591417418e-16 4.3603035818119514e-17 0.0000000000000000e+00  0.0000000000000000e+00 0.0000000000000000e+00 0.0000000000000000e+00  1.3968400578461698e-16 0.0000000000000000e+00 0.0000000000000000e+00  3.5192632741766737e-17 0.0000000000000000e+00 0.0000000000000000e+00  -1.7056072925163103e-16 0.0000000000000000e+00 0.0000000000000000e+00  -2.9960966035513435e-16 0.0000000000000000e+00 0.0000000000000000e+00  0.0000000000000000e+00 0.0000000000000000e+00 0.0000000000000000e+00  0.0000000000000000e+00 0.0000000000000000e+00 0.0000000000000000e+00  0.0000000000000000e+00 0.0000000000000000e+00 0.0000000000000000e+00  0.0000000000000000e+00 -1.0596034543301075e-16 0.0000000000000000e+00  0.0000000000000000e+00 7.4710572034126883e-18 0.0000000000000000e+00  0.0000000000000000e+00 0.0000000000000000e+00 0.0000000000000000e+00  0.0000000000000000e+00 0.0000000000000000e+00 0.0000000000000000e+00  0.0000000000000000e+00 0.0000000000000000e+00 0.0000000000000000e+00  -3.0901699437494751e-01 0.0000000000000000e+00 0.0000000000000000e+00  -5.8778525229247314e-01 0.0000000000000000e+00 0.0000000000000000e+00  -8.0901699437494745e-01 0.0000000000000000e+00 0.0000000000000000e+00  -9.5105651629515453e-01 0.0000000000000000e+00 0.0000000000000000e+00  -1.0000000000000000e+00 0.0000000000000000e+00 0.0000000000000000e+00  -9.5105651629515375e-01 0.0000000000000000e+00 0.0000000000000000e+00  -8.0901699437494745e-01 0.0000000000000000e+00 0.0000000000000000e+00  -5.8778525229247314e-01 0.0000000000000000e+00 0.0000000000000000e+00  -3.0901699437494778e-01 0.0000000000000000e+00 0.0000000000000000e+00  0.0000000000000000e+00 1.7375224472052896e-17 0.0000000000000000e+00  0.0000000000000000e+00 -5.5573346643538101e-17 0.0000000000000000e+00  0.0000000000000000e+00 0.0000000000000000e+00 0.0000000000000000e+00  0.0000000000000000e+00 -1.3229552791921285e-16 0.0000000000000000e+00  0.0000000000000000e+00 4.2811428920087033e-16 0.0000000000000000e+00  0.0000000000000000e+00 0.0000000000000000e+00 0.0000000000000000e+00  0.0000000000000000e+00 -1.9857743872789933e-16 0.0000000000000000e+00  0.0000000000000000e+00 -1.0930025322119162e-16 0.0000000000000000e+00  0.0000000000000000e+00 4.4636563116909035e-17 0.0000000000000000e+00  0.0000000000000000e+00 -1.8019839401497870e-18 0.0000000000000000e+00  0.0000000000000000e+00 0.0000000000000000e+00 0.0000000000000000e+00  0.0000000000000000e+00 0.0000000000000000e+00 0.0000000000000000e+00  0.0000000000000000e+00 0.0000000000000000e+00 0.0000000000000000e+00  0.0000000000000000e+00 3.4922055140297213e-17 0.0000000000000000e+00  0.0000000000000000e+00 0.0000000000000000e+00 0.0000000000000000e+00  0.0000000000000000e+00 0.0000000000000000e+00 0.0000000000000000e+00  0.0000000000000000e+00 -4.3880901168010166e-16 0.0000000000000000e+00  0.0000000000000000e+00 -2.8161096628295341e-16 0.0000000000000000e+00  -6.5896505519105064e-01 -1.3489376144345377e-01 0.0000000000000000e+00  -8.6385513980123108e-01 1.2998172636615332e-01 0.0000000000000000e+00  -7.1055646291475805e-01 2.5537204930802160e-01 0.0000000000000000e+00  -4.8869413752930085e-01 1.5902686847448108e-01 0.0000000000000000e+00  -4.0761304202216125e-01 -6.7579446274931981e-02 0.0000000000000000e+00  -5.1908128983032498e-01 -3.0566561193124875e-01 0.0000000000000000e+00  -8.0361889647888740e-01 -4.0410172038630188e-01 0.0000000000000000e+00  -1.0039630553797600e+00 -2.3742136224857380e-01 0.0000000000000000e+00  -8.0111471903709675e-01 1.2075444137845014e-01 0.0000000000000000e+00  -2.8724206045301214e-18 1.0711710960084314e-17 0.0000000000000000e+00  -8.7149777010559304e-01 4.7372322806586886e-01 0.0000000000000000e+00  -8.9945416534287814e-01 -5.0477816156964828e-01 0.0000000000000000e+00  -7.9795345928461670e-01 3.6894004713273226e-01 0.0000000000000000e+00  -1.2693718024994431e+00 -2.6425072848445591e-01 0.0000000000000000e+00  -1.3820888271689336e+00 -1.1483299292964291e-01 0.0000000000000000e+00  -6.0173984143762482e-01 -3.1011193969930604e-02 0.0000000000000000e+00  -1.6917823078901089e+00 5.4001639543489555e-01 0.0000000000000000e+00  -2.5408688284247960e-01 -1.4256949726139567e-01 0.0000000000000000e+00  -1.3879403869639380e+00 3.0938875530025267e-01 0.0000000000000000e+00  -1.9793626789564998e+00 -1.6251810146114140e-01 0.0000000000000000e+00  -4.6942732696631284e-01 1.6614234807635266e-02 0.0000000000000000e+00  -5.7622104303011745e-01 -5.6583245578868825e-02 0.0000000000000000e+00  -2.0478247349249268e-01 1.5803890278272826e-02 0.0000000000000000e+00  -2.2281325865797671e-01 -4.3887534563689781e-02 0.0000000000000000e+00  -1.9926198662200503e-03 3.0909138957503159e-02 0.0000000000000000e+00  1.0670645315445019e-03 9.0940205359889628e-03 0.0000000000000000e+00  1.4704882287632729e-04 -2.6323945000468383e-03 0.0000000000000000e+00  -2.9045968117291338e-05 7.4087001249987204e-06 0.0000000000000000e+00  -2.7558419240201908e-02 3.2165718181234905e-02 0.0000000000000000e+00  1.3644239426062734e-03 -5.5564944060372294e-03 0.0000000000000000e+00  -3.1848112920635004e-02 -7.8631262652452683e-03 0.0000000000000000e+00  -3.5101029434691450e-01 1.3138912078329348e-01 0.0000000000000000e+00  -6.2340702290398819e-01 1.8843494311023848e-01 0.0000000000000000e+00  -1.1598149903219033e+00 4.0505274850112871e-01 0.0000000000000000e+00  -8.2470562338612585e-01 3.1609621721525311e-01 0.0000000000000000e+00  -5.1372304424140036e-01 4.3594677035693535e-01 0.0000000000000000e+00  -8.8194416671931308e-01 -7.2519641232215293e-01 0.0000000000000000e+00  -9.6416863419901644e-01 2.1797347908167503e-01 0.0000000000000000e+00  -1.4272227863828229e+00 -4.4130329496074033e-01 0.0000000000000000e+00  -1.4096725602969056e+00 -5.9331791070081345e-02 0.0000000000000000e+00  -7.0454286774799768e-01 -2.2421674020345481e-01 0.0000000000000000e+00  -3.4322642067852138e-01 -3.1094499132095682e-01 0.0000000000000000e+00  -1.2503250605547940e+00 -8.0992917716780174e-02 0.0000000000000000e+00  -1.1938884617757066e+00 -1.2688385997829454e-01 0.0000000000000000e+00  -5.2918526133152199e-01 4.4005477687368677e-01 0.0000000000000000e+00  -7.6426005140512099e-01 -6.8252585531468779e-01 0.0000000000000000e+00  -9.6811117739285024e-01 -3.1515113660399646e-01 0.0000000000000000e+00  -8.4192239584245498e-01 1.9756293188761370e-01 0.0000000000000000e+00  -1.7983263822571403e+00 1.8869399346708704e-01 0.0000000000000000e+00  -8.7461251004783858e-01 -1.6179559688478704e-01 0.0000000000000000e+00  -9.3536088383951632e-01 -9.0139024392310543e-02 0.0000000000000000e+00  -2.9560370863751462e-01 -3.2395874443449368e-01 0.0000000000000000e+00  -4.3815779004000310e-01 2.3621145364610302e-01 0.0000000000000000e+00  -1.1263667047952164e+00 5.1406838461423954e-01 0.0000000000000000e+00  -3.4168036786447342e-01 -1.0527374769456421e-01 0.0000000000000000e+00  -1.2719502334615529e+00 3.4164878956600725e-01 0.0000000000000000e+00  -1.0587907413442974e+00 -1.8462563530588241e-02 0.0000000000000000e+00  -6.4735680231779551e-03 2.8324635207280967e-02 0.0000000000000000e+00  -1.5704034906634034e-02 2.6279169323506546e-02 0.0000000000000000e+00  2.7229174582391849e-03 -1.1650354078501846e-02 0.0000000000000000e+00  -1.6563736128839244e-02 6.2540602514940521e-02 0.0000000000000000e+00  -2.3098051461421343e-02 1.3548646534789588e-01 0.0000000000000000e+00  1.5867648597264273e-04 -1.2697055523125988e-04 0.0000000000000000e+00  1.7789101934369467e-03 -4.5754762548420149e-03 0.0000000000000000e+00  -1.6241692838235516e-05 -7.1158481173296522e-06 0.0000000000000000e+00  -1.7370313909956199e-02 1.3267294802450230e-02 0.0000000000000000e+00  -3.0157766342002084e-03 -2.2436415385116179e-03 0.0000000000000000e+00  -5.9352866176430189e-03 7.4638459307468175e-03 0.0000000000000000e+00  -2.9385860273442740e-04 -7.0185967948959121e-04 0.0000000000000000e+00  -1.3880591181711138e-05 2.1326849606759510e-05 0.0000000000000000e+00  -2.8002337993741614e-05 -5.2274502714979726e-05 0.0000000000000000e+00  4.4829409934527475e-03 -4.5579991107453470e-03 0.0000000000000000e+00  -2.9845855610649059e-04 -2.2424451754023099e-03 0.0000000000000000e+00  1.0389677740747431e-03 -1.7256219144304516e-03 0.0000000000000000e+00  -5.4468286559571838e-02 -1.9592043776723803e-02 0.0000000000000000e+00  -2.5112982666876320e-02 -4.0554396037049420e-03 0.0000000000000000e+00  -1.1847577312949595e-02 -3.5593244847721564e-03 0.0000000000000000e+00  -9.4517946559609112e-01 6.7097585156140105e-01 0.0000000000000000e+00  -7.7949991438816857e-01 2.7291225490468407e-01 0.0000000000000000e+00  -6.7149443240849394e-01 -3.0182488651069922e-01 0.0000000000000000e+00  -7.3559614244355120e-01 -5.0722601193463945e-01 0.0000000000000000e+00  -1.0507484526647934e+00 -2.3475066499162894e-01 0.0000000000000000e+00  -5.6151762539367545e-01 1.1605656023432838e-01 0.0000000000000000e+00  -8.5224500075428877e-01 9.4619048318185517e-02 0.0000000000000000e+00  -6.5989470338662803e-01 4.0045624529390400e-01 0.0000000000000000e+00  -8.1581852367825569e-01 1.0324702534183458e-01 0.0000000000000000e+00  -3.5478305029999901e-01 2.5637098998908699e-02 0.0000000000000000e+00  -1.0833142643505638e+00 4.6435231603298899e-01 0.0000000000000000e+00  -5.9971407878303462e-01 1.8031853139620377e-01 0.0000000000000000e+00  -7.2693394073201889e-01 -4.3311968669522544e-01 0.0000000000000000e+00  -1.1499070815150179e+00 2.2732305809843678e-01 0.0000000000000000e+00  -8.5885290588217889e-01 1.3626088123407387e-01 0.0000000000000000e+00  -1.2329061283601608e+00 -1.7631603317732994e-01 0.0000000000000000e+00  -4.4501252383008394e-01 8.3489334128182838e-02 0.0000000000000000e+00  -1.0869701657393280e+00 -4.2624120170218591e-02 0.0000000000000000e+00  -1.6585065026194137e+00 -6.6784976850856614e-01 0.0000000000000000e+00  -1.0546410058094648e+00 -6.1935013662993710e-01 0.0000000000000000e+00  -7.1290070536119043e-01 -6.4861774935140795e-02 0.0000000000000000e+00  -1.0673009070640227e+00 4.5932993113021979e-02 0.0000000000000000e+00  -8.6011170512445459e-02 1.8703740545617468e-02 0.0000000000000000e+00  -3.1463670434308993e-01 4.9669245166089934e-02 0.0000000000000000e+00  -2.0504526129096526e-01 2.6392970796602944e-01 0.0000000000000000e+00  -1.5660426925406873e-01 1.6810952519419514e-01 0.0000000000000000e+00  -1.3025248804176939e+00 -1.5524968408428125e-01 0.0000000000000000e+00  -1.9620627867653730e+00 3.2910135927592005e-01 0.0000000000000000e+00  -3.0387309280950014e-01 2.1329216280626664e-01 0.0000000000000000e+00  -6.2555425709382118e-01 9.0610007026329084e-02 0.0000000000000000e+00  -1.5203908493922411e-01 -2.3029246784978666e-01 0.0000000000000000e+00  -1.8014757624230926e-01 2.4653378552579087e-02 0.0000000000000000e+00  -1.2515590108684100e+00 -8.9947664821555626e-02 0.0000000000000000e+00  -1.2729990039964856e-01 -1.5851421386817838e-01 0.0000000000000000e+00  -5.9804411355387543e-01 -4.8413796843372880e-01 0.0000000000000000e+00  -1.3311992573278626e+00 -1.4738050365238634e-01 0.0000000000000000e+00  -7.9029336157526442e-01 -2.6501433105720725e-02 0.0000000000000000e+00  -8.4330845458990555e-01 -9.7701303068571832e-02 0.0000000000000000e+00  -1.0612524278745996e+00 5.8766738177333216e-02 0.0000000000000000e+00  -4.4283942510507390e-01 -6.7300504715874010e-01 0.0000000000000000e+00  -1.7548062049727073e+00 -3.5953460769420757e-03 0.0000000000000000e+00  -2.1720558344017582e-01 3.2019563226809511e-01 0.0000000000000000e+00  -2.6711907765204701e-01 -4.4430779811973220e-01 0.0000000000000000e+00  -4.9180453867247353e-01 -4.1775274213761579e-02 0.0000000000000000e+00  -4.2109588310005924e-01 2.3751933801538203e-01 0.0000000000000000e+00  -1.0772469634804742e+00 4.5895558229699242e-02 0.000000000